 Entering Gaussian System, Link 0=g16
 Initial command:
 /apps/gaussian/g16c01/g16/l1.exe "/jobfs/13928609.gadi-pbs/Gau-1085961.inp" -scrdir="/jobfs/13928609.gadi-pbs/"
 Entering Link 1 = /apps/gaussian/g16c01/g16/l1.exe PID=   1085962.
  
 Copyright (c) 1988-2019, Gaussian, Inc.  All Rights Reserved.
  
 This is part of the Gaussian(R) 16 program.  It is based on
 the Gaussian(R) 09 system (copyright 2009, Gaussian, Inc.),
 the Gaussian(R) 03 system (copyright 2003, Gaussian, Inc.),
 the Gaussian(R) 98 system (copyright 1998, Gaussian, Inc.),
 the Gaussian(R) 94 system (copyright 1995, Gaussian, Inc.),
 the Gaussian 92(TM) system (copyright 1992, Gaussian, Inc.),
 the Gaussian 90(TM) system (copyright 1990, Gaussian, Inc.),
 the Gaussian 88(TM) system (copyright 1988, Gaussian, Inc.),
 the Gaussian 86(TM) system (copyright 1986, Carnegie Mellon
 University), and the Gaussian 82(TM) system (copyright 1983,
 Carnegie Mellon University). Gaussian is a federally registered
 trademark of Gaussian, Inc.
  
 This software contains proprietary and confidential information,
 including trade secrets, belonging to Gaussian, Inc.
  
 This software is provided under written license and may be
 used, copied, transmitted, or stored only in accord with that
 written license.
  
 The following legend is applicable only to US Government
 contracts under FAR:
  
                    RESTRICTED RIGHTS LEGEND
  
 Use, reproduction and disclosure by the US Government is
 subject to restrictions as set forth in subparagraphs (a)
 and (c) of the Commercial Computer Software - Restricted
 Rights clause in FAR 52.227-19.
  
 Gaussian, Inc.
 340 Quinnipiac St., Bldg. 40, Wallingford CT 06492
  
  
 ---------------------------------------------------------------
 Warning -- This program may not be used in any manner that
 competes with the business of Gaussian, Inc. or will provide
 assistance to any competitor of Gaussian, Inc.  The licensee
 of this program is prohibited from giving any competitor of
 Gaussian, Inc. access to this program.  By using this program,
 the user acknowledges that Gaussian, Inc. is engaged in the
 business of creating and licensing software in the field of
 computational chemistry and represents and warrants to the
 licensee that it is not a competitor of Gaussian, Inc. and that
 it will not use this program in any manner prohibited above.
 ---------------------------------------------------------------
  

 Cite this work as:
 Gaussian 16, Revision C.01,
 M. J. Frisch, G. W. Trucks, H. B. Schlegel, G. E. Scuseria, 
 M. A. Robb, J. R. Cheeseman, G. Scalmani, V. Barone, 
 G. A. Petersson, H. Nakatsuji, X. Li, M. Caricato, A. V. Marenich, 
 J. Bloino, B. G. Janesko, R. Gomperts, B. Mennucci, H. P. Hratchian, 
 J. V. Ortiz, A. F. Izmaylov, J. L. Sonnenberg, D. Williams-Young, 
 F. Ding, F. Lipparini, F. Egidi, J. Goings, B. Peng, A. Petrone, 
 T. Henderson, D. Ranasinghe, V. G. Zakrzewski, J. Gao, N. Rega, 
 G. Zheng, W. Liang, M. Hada, M. Ehara, K. Toyota, R. Fukuda, 
 J. Hasegawa, M. Ishida, T. Nakajima, Y. Honda, O. Kitao, H. Nakai, 
 T. Vreven, K. Throssell, J. A. Montgomery, Jr., J. E. Peralta, 
 F. Ogliaro, M. J. Bearpark, J. J. Heyd, E. N. Brothers, K. N. Kudin, 
 V. N. Staroverov, T. A. Keith, R. Kobayashi, J. Normand, 
 K. Raghavachari, A. P. Rendell, J. C. Burant, S. S. Iyengar, 
 J. Tomasi, M. Cossi, J. M. Millam, M. Klene, C. Adamo, R. Cammi, 
 J. W. Ochterski, R. L. Martin, K. Morokuma, O. Farkas, 
 J. B. Foresman, and D. J. Fox, Gaussian, Inc., Wallingford CT, 2019.
 
 ******************************************
 Gaussian 16:  ES64L-G16RevC.01  3-Jul-2019
                30-Nov-2020 
 ******************************************
 %chk=spec.chk
 %mem=160gb
 %nproc=48
 Will use up to   48 processors via shared memory.
 --------------------------------------------------------
 #P M062X/Gen field=Z+8 int=(grid=ultrafine) polar=Dipole
 --------------------------------------------------------
 1/38=1,172=1/1;
 2/12=2,17=6,18=5,40=1/2;
 3/5=7,11=2,14=3,15=8,25=1,30=1,74=-55,75=-5/1,2,3;
 4//1;
 5/5=2,38=5,98=1/2;
 8/6=4,10=90,11=11/1;
 10/6=1,13=10,17=1/2;
 6/7=2,8=2,9=2,10=2,28=1/1;
 99/5=1,9=1/99;
 Leave Link    1 at Mon Nov 30 17:35:26 2020, MaxMem= 21474836480 cpu:               2.5 elap:               0.1
 (Enter /apps/gaussian/g16c01/g16/l101.exe)
 ---
 dhp
 ---
 Symbolic Z-matrix:
 Charge = -1 Multiplicity = 1
 P                     0.9387    1.01586   0.00735 
 O                    -0.55886   0.98478  -0.00791 
 O                     1.866     0.94671  -1.19053 
 O                     1.4667   -0.20955   1.06658 
 H                     2.3113   -0.46062   0.6465 
 O                     1.41458   2.40255   0.8754 
 H                     2.24958   2.62345   0.42044 
 
 ITRead=  0  0  0  0  0  0  0
 MicOpt= -1 -1 -1 -1 -1 -1 -1
 NAtoms=      7 NQM=        7 NQMF=       0 NMMI=      0 NMMIF=      0
                NMic=       0 NMicF=      0.
                    Isotopes and Nuclear Properties:
 (Nuclear quadrupole moments (NQMom) in fm**2, nuclear magnetic moments (NMagM)
  in nuclear magnetons)

  Atom         1           2           3           4           5           6           7
 IAtWgt=          31          16          16          16           1          16           1
 AtmWgt=  30.9737634  15.9949146  15.9949146  15.9949146   1.0078250  15.9949146   1.0078250
 NucSpn=           1           0           0           0           1           0           1
 AtZEff=  -0.0000000  -0.0000000  -0.0000000  -0.0000000  -0.0000000  -0.0000000  -0.0000000
 NQMom=    0.0000000   0.0000000   0.0000000   0.0000000   0.0000000   0.0000000   0.0000000
 NMagM=    1.1316000   0.0000000   0.0000000   0.0000000   2.7928460   0.0000000   2.7928460
 AtZNuc=  15.0000000   8.0000000   8.0000000   8.0000000   1.0000000   8.0000000   1.0000000
 Leave Link  101 at Mon Nov 30 17:35:26 2020, MaxMem= 21474836480 cpu:               4.3 elap:               0.3
 (Enter /apps/gaussian/g16c01/g16/l202.exe)
                          Input orientation:                          
 ---------------------------------------------------------------------
 Center     Atomic      Atomic             Coordinates (Angstroms)
 Number     Number       Type             X           Y           Z
 ---------------------------------------------------------------------
      1         15           0        0.938700    1.015860    0.007350
      2          8           0       -0.558860    0.984780   -0.007910
      3          8           0        1.866000    0.946710   -1.190530
      4          8           0        1.466700   -0.209550    1.066580
      5          1           0        2.311300   -0.460620    0.646500
      6          8           0        1.414580    2.402550    0.875400
      7          1           0        2.249580    2.623450    0.420440
 ---------------------------------------------------------------------
                    Distance matrix (angstroms):
                    1          2          3          4          5
     1  P    0.000000
     2  O    1.497960   0.000000
     3  O    1.516438   2.698145   0.000000
     4  O    1.703638   2.585314   2.567279   0.000000
     5  H    2.114837   3.279520   2.356597   0.976142   0.000000
     6  O    1.703785   2.585493   2.567356   2.619605   3.009027
     7  H    2.115040   3.279643   2.356653   3.009367   3.092960
                    6          7
     6  O    0.000000
     7  H    0.976223   0.000000
 Stoichiometry    H2O4P(1-)
 Framework group  C1[X(H2O4P)]
 Deg. of freedom    15
 Full point group                 C1      NOp   1
 Largest Abelian subgroup         C1      NOp   1
 Largest concise Abelian subgroup C1      NOp   1
                         Standard orientation:                         
 ---------------------------------------------------------------------
 Center     Atomic      Atomic             Coordinates (Angstroms)
 Number     Number       Type             X           Y           Z
 ---------------------------------------------------------------------
      1         15           0        0.000527    0.116543    0.146306
      2          8           0        0.006674    1.610267    0.258721
      3          8           0       -0.003366   -0.885129    1.284823
      4          8           0        1.308285   -0.328482   -0.850741
      5          1           0        1.541336   -1.195527   -0.467631
      6          8           0       -1.311299   -0.317877   -0.850324
      7          1           0       -1.551598   -1.182846   -0.466793
 ---------------------------------------------------------------------
 Rotational constants (GHZ):           4.5418526           4.5017355           4.1976655
 Leave Link  202 at Mon Nov 30 17:35:27 2020, MaxMem= 21474836480 cpu:               4.2 elap:               0.3
 (Enter /apps/gaussian/g16c01/g16/l301.exe)
 General basis read from cards:  (5D, 7F)
 Centers:       5      7
 S 4 1.00
     Exponent=  3.3685014000D+01 Coefficients=  6.0680000000D-03
     Exponent=  5.0947880000D+00 Coefficients=  4.5316000000D-02
     Exponent=  1.1587860000D+00 Coefficients=  2.0284600000D-01
     Exponent=  3.2584000000D-01 Coefficients=  5.0370900000D-01
 S 1 1.00
     Exponent=  1.0274100000D-01 Coefficients=  1.0000000000D+00
 S 1 1.00
     Exponent=  3.2400000000D-02 Coefficients=  1.0000000000D+00
 P 2 1.00
     Exponent=  1.1588000000D+00 Coefficients=  1.8844000000D-01
     Exponent=  3.2580000000D-01 Coefficients=  8.8242000000D-01
 P 2 1.00
     Exponent=  1.0270000000D-01 Coefficients=  1.1780000000D-01
     Exponent=  3.2400000000D-02 Coefficients=  4.2000000000D-03
 ****
 Centers:       2      3      4      6
 S 5 1.00
     Exponent=  1.0662285000D+04 Coefficients=  7.9900000000D-04
     Exponent=  1.5997097000D+03 Coefficients=  6.1530000000D-03
     Exponent=  3.6472526000D+02 Coefficients=  3.1157000000D-02
     Exponent=  1.0365179000D+02 Coefficients=  1.1559600000D-01
     Exponent=  3.3905805000D+01 Coefficients=  3.0155200000D-01
 S 2 1.00
     Exponent=  1.2287469000D+01 Coefficients=  4.4487000000D-01
     Exponent=  4.7568050000D+00 Coefficients=  2.4317200000D-01
 S 1 1.00
     Exponent=  1.0042710000D+00 Coefficients=  1.0000000000D+00
 S 1 1.00
     Exponent=  3.0068600000D-01 Coefficients=  1.0000000000D+00
 S 1 1.00
     Exponent=  9.0030000000D-02 Coefficients=  1.0000000000D+00
 P 4 1.00
     Exponent=  3.4856463000D+01 Coefficients=  1.5648000000D-02
     Exponent=  7.8431310000D+00 Coefficients=  9.8197000000D-02
     Exponent=  2.3062490000D+00 Coefficients=  3.0776800000D-01
     Exponent=  7.2316400000D-01 Coefficients=  4.9247000000D-01
 P 1 1.00
     Exponent=  2.1488200000D-01 Coefficients=  1.0000000000D+00
 P 1 1.00
     Exponent=  6.3850000000D-02 Coefficients=  1.0000000000D+00
 D 2 1.00
     Exponent=  2.3062000000D+00 Coefficients=  2.0270000000D-01
     Exponent=  7.2320000000D-01 Coefficients=  5.7910000000D-01
 D 2 1.00
     Exponent=  2.1490000000D-01 Coefficients=  7.8545000000D-01
     Exponent=  6.3900000000D-02 Coefficients=  5.3387000000D-01
 ****
 Centers:       1
 S 6 1.00
     Exponent=  7.7492430000D+04 Coefficients=  7.8700000000D-04
     Exponent=  1.1605790000D+04 Coefficients=  6.1090000000D-03
     Exponent=  2.6459600000D+03 Coefficients=  3.1368000000D-02
     Exponent=  7.5498000000D+02 Coefficients=  1.2429100000D-01
     Exponent=  2.4875000000D+02 Coefficients=  3.8068200000D-01
     Exponent=  9.1157000000D+01 Coefficients=  5.5998900000D-01
 S 3 1.00
     Exponent=  9.1157000000D+01 Coefficients=  1.6399700000D-01
     Exponent=  3.6226000000D+01 Coefficients=  6.2592700000D-01
     Exponent=  1.5211000000D+01 Coefficients=  2.6221100000D-01
 S 1 1.00
     Exponent=  4.7138000000D+00 Coefficients=  1.0000000000D+00
 S 1 1.00
     Exponent=  1.7827000000D+00 Coefficients=  1.0000000000D+00
 S 1 1.00
     Exponent=  3.4250000000D-01 Coefficients=  1.0000000000D+00
 S 1 1.00
     Exponent=  1.2460000000D-01 Coefficients=  1.0000000000D+00
 S 1 1.00
     Exponent=  4.5300000000D-02 Coefficients=  1.0000000000D+00
 P 6 1.00
     Exponent=  3.8484000000D+02 Coefficients=  3.7650000000D-03
     Exponent=  9.0552000000D+01 Coefficients=  2.9010000000D-02
     Exponent=  2.8806000000D+01 Coefficients=  1.2295300000D-01
     Exponent=  1.0688000000D+01 Coefficients=  3.0647000000D-01
     Exponent=  4.2521000000D+00 Coefficients=  4.4134900000D-01
     Exponent=  1.7405000000D+00 Coefficients=  2.9581700000D-01
 P 1 1.00
     Exponent=  5.9790000000D-01 Coefficients=  1.0000000000D+00
 P 1 1.00
     Exponent=  2.2920000000D-01 Coefficients=  1.0000000000D+00
 P 1 1.00
     Exponent=  8.3800000000D-02 Coefficients=  1.0000000000D+00
 P 1 1.00
     Exponent=  3.0600000000D-02 Coefficients=  1.0000000000D+00
 D 2 1.00
     Exponent=  5.9790000000D-01 Coefficients=  3.0930000000D-01
     Exponent=  2.2920000000D-01 Coefficients=  9.7150000000D-01
 D 2 1.00
     Exponent=  8.3800000000D-02 Coefficients=  1.2780000000D-01
     Exponent=  3.0600000000D-02 Coefficients=  7.7400000000D-02
 ****
 Ernie: Thresh=  0.10000D-02 Tol=  0.10000D-05 Strict=F.
 The following finite field(s) will be applied:
 An electric field of              0.0000  0.0000  0.0008
 In input orientation: -5.07115277D-05 -5.91578734D-05 -7.96196387D-04
 There are   156 symmetry adapted cartesian basis functions of A   symmetry.
 There are   146 symmetry adapted basis functions of A   symmetry.
   146 basis functions,   312 primitive gaussians,   156 cartesian basis functions
    25 alpha electrons       25 beta electrons
       nuclear repulsion energy       262.2134740329 Hartrees.
 IExCor= 4336 DFT=T Ex+Corr=M062X ExCW=0 ScaHFX=  0.540000
 ScaDFX=  1.000000  1.000000  1.000000  1.000000 ScalE2=  1.000000  1.000000
 IRadAn=      5 IRanWt=     -1 IRanGd=            0 ICorTp=0 IEmpDi=  4
 NAtoms=    7 NActive=    7 NUniq=    7 SFac= 1.00D+00 NAtFMM=   60 NAOKFM=F Big=F
 Integral buffers will be    131072 words long.
 Raffenetti 2 integral format.
 Two-electron integral symmetry is turned on.
 Leave Link  301 at Mon Nov 30 17:35:27 2020, MaxMem= 21474836480 cpu:               2.2 elap:               0.2
 (Enter /apps/gaussian/g16c01/g16/l302.exe)
 NPDir=0 NMtPBC=     1 NCelOv=     1 NCel=       1 NClECP=     1 NCelD=      1
         NCelK=      1 NCelE2=     1 NClLst=     1 CellRange=     0.0.
 One-electron integrals computed using PRISM.
 One-electron integral symmetry used in STVInt
 NBasis=   146 RedAO= T EigKep=  2.42D-04  NBF=   146
 NBsUse=   146 1.00D-06 EigRej= -1.00D+00 NBFU=   146
 Precomputing XC quadrature grid using
 IXCGrd= 4 IRadAn=           5 IRanWt=          -1 IRanGd=           0 AccXCQ= 0.00D+00.
 Generated NRdTot=       0 NPtTot=           0 NUsed=           0 NTot=          32
 NSgBfM=   154   154   154   154   154 MxSgAt=     7 MxSgA2=     7.
 Leave Link  302 at Mon Nov 30 17:35:28 2020, MaxMem= 21474836480 cpu:              43.9 elap:               1.4
 (Enter /apps/gaussian/g16c01/g16/l303.exe)
 DipDrv:  MaxL=1.
 The nuclear repulsion energy is now       262.2134740329 hartrees.
 Leave Link  303 at Mon Nov 30 17:35:29 2020, MaxMem= 21474836480 cpu:               9.9 elap:               0.4
 (Enter /apps/gaussian/g16c01/g16/l401.exe)
 ExpMin= 3.06D-02 ExpMax= 7.75D+04 ExpMxC= 2.65D+03 IAcc=3 IRadAn=         5 AccDes= 0.00D+00
 Harris functional with IExCor= 1009 and IRadAn=       5 diagonalized for initial guess.
 HarFok:  IExCor= 1009 AccDes= 0.00D+00 IRadAn=         5 IDoV= 1 UseB2=F ITyADJ=14
 ICtDFT=  3500011 ScaDFX=  1.000000  1.000000  1.000000  1.000000
 FoFCou: FMM=F IPFlag=           0 FMFlag=      100000 FMFlg1=           0
         NFxFlg=           0 DoJE=T BraDBF=F KetDBF=T FulRan=T
         wScrn=  0.000000 ICntrl=       500 IOpCl=  0 I1Cent=   200000004 NGrid=           0
         NMat0=    1 NMatS0=      1 NMatT0=    0 NMatD0=    1 NMtDS0=    0 NMtDT0=    0
 Petite list used in FoFCou.
 Harris En= -643.551526191584    
 JPrj=0 DoOrth=F DoCkMO=F.
 Leave Link  401 at Mon Nov 30 17:35:31 2020, MaxMem= 21474836480 cpu:              45.1 elap:               1.9
 (Enter /apps/gaussian/g16c01/g16/l502.exe)
 Keep R1 ints in memory in canonical form, NReq=104885708.
 FoFCou: FMM=F IPFlag=           0 FMFlag=           0 FMFlg1=           0
         NFxFlg=           0 DoJE=F BraDBF=F KetDBF=F FulRan=T
         wScrn=  0.000000 ICntrl=       600 IOpCl=  0 I1Cent=           0 NGrid=           0
         NMat0=    1 NMatS0=  10731 NMatT0=    0 NMatD0=    1 NMtDS0=    0 NMtDT0=    0
 Symmetry not used in FoFCou.
 Two-electron integral symmetry not used.
 Closed shell SCF:
 Using DIIS extrapolation, IDIIS=  1040.
 NGot= 21474836480 LenX= 21417196084 LenY= 21417171307
 Requested convergence on RMS density matrix=1.00D-08 within 128 cycles.
 Requested convergence on MAX density matrix=1.00D-06.
 Requested convergence on             energy=1.00D-06.
 No special actions if energy rises.

 Cycle   1  Pass 1  IDiag  1:
 E= -643.256339016589    
 DIIS: error= 4.21D-02 at cycle   1 NSaved=   1.
 NSaved= 1 IEnMin= 1 EnMin= -643.256339016589     IErMin= 1 ErrMin= 4.21D-02
 ErrMax= 4.21D-02  0.00D+00 EMaxC= 1.00D-01 BMatC= 5.11D-01 BMatP= 5.11D-01
 IDIUse=3 WtCom= 5.79D-01 WtEn= 4.21D-01
 Coeff-Com:  0.100D+01
 Coeff-En:   0.100D+01
 Coeff:      0.100D+01
 Gap=     0.278 Goal=   None    Shift=    0.000
 GapD=    0.278 DampG=1.000 DampE=0.500 DampFc=0.5000 IDamp=-1.
 Damping current iteration by 5.00D-01
 RMSDP=1.04D-02 MaxDP=2.94D-01              OVMax= 2.28D-01

 Cycle   2  Pass 1  IDiag  1:
 E= -643.397166459860     Delta-E=       -0.140827443271 Rises=F Damp=T
 DIIS: error= 9.19D-03 at cycle   2 NSaved=   2.
 NSaved= 2 IEnMin= 2 EnMin= -643.397166459860     IErMin= 2 ErrMin= 9.19D-03
 ErrMax= 9.19D-03  0.00D+00 EMaxC= 1.00D-01 BMatC= 2.88D-02 BMatP= 5.11D-01
 IDIUse=3 WtCom= 9.08D-01 WtEn= 9.19D-02
 Coeff-Com:  0.925D-01 0.907D+00
 Coeff-En:   0.209D+00 0.791D+00
 Coeff:      0.103D+00 0.897D+00
 Gap=     0.273 Goal=   None    Shift=    0.000
 RMSDP=1.86D-03 MaxDP=6.54D-02 DE=-1.41D-01 OVMax= 1.43D-01

 Cycle   3  Pass 1  IDiag  1:
 E= -643.603575952205     Delta-E=       -0.206409492345 Rises=F Damp=F
 DIIS: error= 4.82D-03 at cycle   3 NSaved=   3.
 NSaved= 3 IEnMin= 3 EnMin= -643.603575952205     IErMin= 3 ErrMin= 4.82D-03
 ErrMax= 4.82D-03  0.00D+00 EMaxC= 1.00D-01 BMatC= 6.06D-03 BMatP= 2.88D-02
 IDIUse=3 WtCom= 9.52D-01 WtEn= 4.82D-02
 Coeff-Com: -0.716D-02 0.255D+00 0.752D+00
 Coeff-En:   0.000D+00 0.000D+00 0.100D+01
 Coeff:     -0.682D-02 0.243D+00 0.764D+00
 Gap=     0.270 Goal=   None    Shift=    0.000
 RMSDP=7.96D-04 MaxDP=2.49D-02 DE=-2.06D-01 OVMax= 2.32D-02

 Cycle   4  Pass 1  IDiag  1:
 E= -643.605578665032     Delta-E=       -0.002002712827 Rises=F Damp=F
 DIIS: error= 3.08D-03 at cycle   4 NSaved=   4.
 NSaved= 4 IEnMin= 4 EnMin= -643.605578665032     IErMin= 4 ErrMin= 3.08D-03
 ErrMax= 3.08D-03  0.00D+00 EMaxC= 1.00D-01 BMatC= 3.55D-03 BMatP= 6.06D-03
 IDIUse=3 WtCom= 9.69D-01 WtEn= 3.08D-02
 Coeff-Com: -0.148D-01 0.401D-01 0.452D+00 0.523D+00
 Coeff-En:   0.000D+00 0.000D+00 0.374D+00 0.626D+00
 Coeff:     -0.143D-01 0.389D-01 0.449D+00 0.526D+00
 Gap=     0.275 Goal=   None    Shift=    0.000
 RMSDP=3.17D-04 MaxDP=8.91D-03 DE=-2.00D-03 OVMax= 9.33D-03

 Cycle   5  Pass 1  IDiag  1:
 E= -643.608182508592     Delta-E=       -0.002603843560 Rises=F Damp=F
 DIIS: error= 1.80D-04 at cycle   5 NSaved=   5.
 NSaved= 5 IEnMin= 5 EnMin= -643.608182508592     IErMin= 5 ErrMin= 1.80D-04
 ErrMax= 1.80D-04  0.00D+00 EMaxC= 1.00D-01 BMatC= 8.39D-06 BMatP= 3.55D-03
 IDIUse=3 WtCom= 9.98D-01 WtEn= 1.80D-03
 Coeff-Com: -0.103D-02 0.137D-03 0.546D-01 0.880D-01 0.858D+00
 Coeff-En:   0.000D+00 0.000D+00 0.000D+00 0.000D+00 0.100D+01
 Coeff:     -0.103D-02 0.137D-03 0.545D-01 0.879D-01 0.859D+00
 Gap=     0.274 Goal=   None    Shift=    0.000
 RMSDP=4.26D-05 MaxDP=1.01D-03 DE=-2.60D-03 OVMax= 6.96D-04

 Cycle   6  Pass 1  IDiag  1:
 E= -643.608189427283     Delta-E=       -0.000006918691 Rises=F Damp=F
 DIIS: error= 6.44D-05 at cycle   6 NSaved=   6.
 NSaved= 6 IEnMin= 6 EnMin= -643.608189427283     IErMin= 6 ErrMin= 6.44D-05
 ErrMax= 6.44D-05  0.00D+00 EMaxC= 1.00D-01 BMatC= 1.29D-06 BMatP= 8.39D-06
 IDIUse=1 WtCom= 1.00D+00 WtEn= 0.00D+00
 Coeff-Com:  0.200D-03-0.173D-02 0.206D-02 0.116D-01 0.332D+00 0.656D+00
 Coeff:      0.200D-03-0.173D-02 0.206D-02 0.116D-01 0.332D+00 0.656D+00
 Gap=     0.275 Goal=   None    Shift=    0.000
 RMSDP=1.35D-05 MaxDP=5.33D-04 DE=-6.92D-06 OVMax= 2.75D-04

 Cycle   7  Pass 1  IDiag  1:
 E= -643.608190495810     Delta-E=       -0.000001068528 Rises=F Damp=F
 DIIS: error= 1.96D-05 at cycle   7 NSaved=   7.
 NSaved= 7 IEnMin= 7 EnMin= -643.608190495810     IErMin= 7 ErrMin= 1.96D-05
 ErrMax= 1.96D-05  0.00D+00 EMaxC= 1.00D-01 BMatC= 1.32D-07 BMatP= 1.29D-06
 IDIUse=1 WtCom= 1.00D+00 WtEn= 0.00D+00
 Coeff-Com:  0.179D-03-0.722D-03-0.405D-02-0.288D-02 0.705D-01 0.249D+00
 Coeff-Com:  0.688D+00
 Coeff:      0.179D-03-0.722D-03-0.405D-02-0.288D-02 0.705D-01 0.249D+00
 Coeff:      0.688D+00
 Gap=     0.275 Goal=   None    Shift=    0.000
 RMSDP=3.85D-06 MaxDP=1.20D-04 DE=-1.07D-06 OVMax= 1.46D-04

 Cycle   8  Pass 1  IDiag  1:
 E= -643.608190580693     Delta-E=       -0.000000084883 Rises=F Damp=F
 DIIS: error= 1.75D-05 at cycle   8 NSaved=   8.
 NSaved= 8 IEnMin= 8 EnMin= -643.608190580693     IErMin= 8 ErrMin= 1.75D-05
 ErrMax= 1.75D-05  0.00D+00 EMaxC= 1.00D-01 BMatC= 4.90D-08 BMatP= 1.32D-07
 IDIUse=1 WtCom= 1.00D+00 WtEn= 0.00D+00
 Coeff-Com:  0.611D-04-0.211D-04-0.284D-02-0.405D-02-0.272D-01-0.545D-02
 Coeff-Com:  0.400D+00 0.639D+00
 Coeff:      0.611D-04-0.211D-04-0.284D-02-0.405D-02-0.272D-01-0.545D-02
 Coeff:      0.400D+00 0.639D+00
 Gap=     0.275 Goal=   None    Shift=    0.000
 RMSDP=1.67D-06 MaxDP=5.65D-05 DE=-8.49D-08 OVMax= 5.53D-05

 Cycle   9  Pass 1  IDiag  1:
 E= -643.608190622295     Delta-E=       -0.000000041603 Rises=F Damp=F
 DIIS: error= 8.54D-07 at cycle   9 NSaved=   9.
 NSaved= 9 IEnMin= 9 EnMin= -643.608190622295     IErMin= 9 ErrMin= 8.54D-07
 ErrMax= 8.54D-07  0.00D+00 EMaxC= 1.00D-01 BMatC= 3.20D-10 BMatP= 4.90D-08
 IDIUse=1 WtCom= 1.00D+00 WtEn= 0.00D+00
 Coeff-Com: -0.147D-04 0.398D-04 0.712D-04 0.702D-04-0.411D-02-0.106D-01
 Coeff-Com: -0.179D-01 0.162D-01 0.102D+01
 Coeff:     -0.147D-04 0.398D-04 0.712D-04 0.702D-04-0.411D-02-0.106D-01
 Coeff:     -0.179D-01 0.162D-01 0.102D+01
 Gap=     0.275 Goal=   None    Shift=    0.000
 RMSDP=4.19D-07 MaxDP=1.79D-05 DE=-4.16D-08 OVMax= 1.06D-05

 Cycle  10  Pass 1  IDiag  1:
 E= -643.608190622911     Delta-E=       -0.000000000616 Rises=F Damp=F
 DIIS: error= 2.19D-07 at cycle  10 NSaved=  10.
 NSaved=10 IEnMin=10 EnMin= -643.608190622911     IErMin=10 ErrMin= 2.19D-07
 ErrMax= 2.19D-07  0.00D+00 EMaxC= 1.00D-01 BMatC= 1.82D-11 BMatP= 3.20D-10
 IDIUse=1 WtCom= 1.00D+00 WtEn= 0.00D+00
 Coeff-Com: -0.565D-05 0.761D-05 0.145D-03 0.201D-03 0.713D-03-0.670D-03
 Coeff-Com: -0.240D-01-0.334D-01 0.143D+00 0.914D+00
 Coeff:     -0.565D-05 0.761D-05 0.145D-03 0.201D-03 0.713D-03-0.670D-03
 Coeff:     -0.240D-01-0.334D-01 0.143D+00 0.914D+00
 Gap=     0.275 Goal=   None    Shift=    0.000
 RMSDP=8.25D-08 MaxDP=1.27D-06 DE=-6.16D-10 OVMax= 2.41D-06

 Cycle  11  Pass 1  IDiag  1:
 E= -643.608190622943     Delta-E=       -0.000000000032 Rises=F Damp=F
 DIIS: error= 5.87D-08 at cycle  11 NSaved=  11.
 NSaved=11 IEnMin=11 EnMin= -643.608190622943     IErMin=11 ErrMin= 5.87D-08
 ErrMax= 5.87D-08  0.00D+00 EMaxC= 1.00D-01 BMatC= 8.37D-13 BMatP= 1.82D-11
 IDIUse=1 WtCom= 1.00D+00 WtEn= 0.00D+00
 Coeff-Com:  0.115D-05-0.206D-05-0.546D-05-0.119D-04 0.182D-03 0.614D-03
 Coeff-Com:  0.134D-02-0.906D-03-0.572D-01 0.158D-01 0.104D+01
 Coeff:      0.115D-05-0.206D-05-0.546D-05-0.119D-04 0.182D-03 0.614D-03
 Coeff:      0.134D-02-0.906D-03-0.572D-01 0.158D-01 0.104D+01
 Gap=     0.275 Goal=   None    Shift=    0.000
 RMSDP=1.94D-08 MaxDP=4.45D-07 DE=-3.23D-11 OVMax= 6.25D-07

 Cycle  12  Pass 1  IDiag  1:
 E= -643.608190622945     Delta-E=       -0.000000000002 Rises=F Damp=F
 DIIS: error= 2.69D-08 at cycle  12 NSaved=  12.
 NSaved=12 IEnMin=12 EnMin= -643.608190622945     IErMin=12 ErrMin= 2.69D-08
 ErrMax= 2.69D-08  0.00D+00 EMaxC= 1.00D-01 BMatC= 1.50D-13 BMatP= 8.37D-13
 IDIUse=1 WtCom= 1.00D+00 WtEn= 0.00D+00
 Coeff-Com:  0.675D-06-0.114D-05-0.677D-05-0.112D-04 0.484D-04 0.255D-03
 Coeff-Com:  0.139D-02 0.933D-03-0.279D-01-0.250D-01 0.416D+00 0.635D+00
 Coeff:      0.675D-06-0.114D-05-0.677D-05-0.112D-04 0.484D-04 0.255D-03
 Coeff:      0.139D-02 0.933D-03-0.279D-01-0.250D-01 0.416D+00 0.635D+00
 Gap=     0.275 Goal=   None    Shift=    0.000
 RMSDP=3.50D-09 MaxDP=1.08D-07 DE=-1.82D-12 OVMax= 1.09D-07

 SCF Done:  E(RM062X) =  -643.608190623     A.U. after   12 cycles
            NFock= 12  Conv=0.35D-08     -V/T= 2.0042
 KE= 6.408963579072D+02 PE=-2.060824330048D+03 EE= 5.141063074852D+02
 Leave Link  502 at Mon Nov 30 17:35:37 2020, MaxMem= 21474836480 cpu:             155.4 elap:               5.8
 (Enter /apps/gaussian/g16c01/g16/l801.exe)
 DoSCS=F DFT=T ScalE2(SS,OS)=  1.000000  1.000000
 Range of M.O.s used for correlation:     1   146
 NBasis=   146 NAE=    25 NBE=    25 NFC=     0 NFV=     0
 NROrb=    146 NOA=    25 NOB=    25 NVA=   121 NVB=   121

 **** Warning!!: The largest alpha MO coefficient is  0.14586852D+02

 Leave Link  801 at Mon Nov 30 17:35:37 2020, MaxMem= 21474836480 cpu:               2.7 elap:               0.2
 (Enter /apps/gaussian/g16c01/g16/l1002.exe)
 Minotr:  Closed shell wavefunction.
          Direct CPHF calculation.
          Differentiating once with respect to electric field.
                with respect to dipole field.
          Electric field/nuclear overlap derivatives assumed to be zero.
          Requested convergence is 1.0D-08 RMS, and 1.0D-07 maximum.
          Secondary convergence is 1.0D-12 RMS, and 1.0D-12 maximum.
          NewPWx=F KeepS1=T KeepF1=T KeepIn=T MapXYZ=F SortEE=F KeepMc=T.
         2164 words used for storage of precomputed grid.
 Keep R1 ints in memory in canonical form, NReq=104735707.
 FoFCou: FMM=F IPFlag=           0 FMFlag=           0 FMFlg1=           0
         NFxFlg=           0 DoJE=F BraDBF=F KetDBF=F FulRan=T
         wScrn=  0.000000 ICntrl=       600 IOpCl=  0 I1Cent=           0 NGrid=           0
         NMat0=    1 NMatS0=  10731 NMatT0=    0 NMatD0=    1 NMtDS0=    0 NMtDT0=    0
 Symmetry not used in FoFCou.
 Two-electron integral symmetry not used.
          MDV=   21474836480 using IRadAn=       1.
          Solving linear equations simultaneously, MaxMat=       0.
          There are     3 degrees of freedom in the 1st order CPHF.  IDoFFX=0 NUNeed=     3.
      3 vectors produced by pass  0 Test12= 1.01D-13 3.33D-08 XBig12= 2.16D+01 1.22D+00.
 AX will form     3 AO Fock derivatives at one time.
      3 vectors produced by pass  1 Test12= 1.01D-13 3.33D-08 XBig12= 5.69D+00 5.41D-01.
      3 vectors produced by pass  2 Test12= 1.01D-13 3.33D-08 XBig12= 1.18D+00 1.74D-01.
      3 vectors produced by pass  3 Test12= 1.01D-13 3.33D-08 XBig12= 1.04D-01 5.46D-02.
      3 vectors produced by pass  4 Test12= 1.01D-13 3.33D-08 XBig12= 1.57D-02 2.20D-02.
      3 vectors produced by pass  5 Test12= 1.01D-13 3.33D-08 XBig12= 1.08D-03 8.82D-03.
      3 vectors produced by pass  6 Test12= 1.01D-13 3.33D-08 XBig12= 5.07D-05 1.78D-03.
      3 vectors produced by pass  7 Test12= 1.01D-13 3.33D-08 XBig12= 2.15D-06 3.35D-04.
      3 vectors produced by pass  8 Test12= 1.01D-13 3.33D-08 XBig12= 3.66D-08 3.42D-05.
      3 vectors produced by pass  9 Test12= 1.01D-13 3.33D-08 XBig12= 6.05D-10 4.71D-06.
      3 vectors produced by pass 10 Test12= 1.01D-13 3.33D-08 XBig12= 1.74D-11 6.92D-07.
      3 vectors produced by pass 11 Test12= 1.01D-13 3.33D-08 XBig12= 4.92D-13 1.10D-07.
 InvSVY:  IOpt=1 It=  1 EMax= 3.55D-15
 Solved reduced A of dimension    36 with     3 vectors.
 FullF1:  Do perturbations      1 to       3.
 SCF Polarizability for W=    0.000000:
                1             2             3 
      1  0.447484D+02
      2  0.127507D-01  0.474680D+02
      3 -0.892163D-03 -0.343381D+00  0.431391D+02
 Isotropic polarizability for W=    0.000000       45.12 Bohr**3.
 SCF Static Hyperpolarizability:
 K=  1 block:
                1 
      1 -0.799403D-01
 K=  2 block:
                1             2 
      1 -0.614831D+01
      2 -0.188969D+00 -0.562490D+02
 K=  3 block:
                1             2             3 
      1  0.891155D+01
      2 -0.697863D-01 -0.107797D+02
      3  0.297743D-01  0.610015D+01 -0.188824D+00
 End of Minotr F.D. properties file   721 does not exist.
 End of Minotr F.D. properties file   722 does not exist.
 End of Minotr F.D. properties file   788 does not exist.
 Leave Link 1002 at Mon Nov 30 17:35:51 2020, MaxMem= 21474836480 cpu:             477.2 elap:              13.6
 (Enter /apps/gaussian/g16c01/g16/l601.exe)
 Copying SCF densities to generalized density rwf, IOpCl= 0 IROHF=0.

 **********************************************************************

            Population analysis using the SCF Density.

 **********************************************************************

 Orbital symmetries:
       Occupied  (A) (A) (A) (A) (A) (A) (A) (A) (A) (A) (A) (A)
                 (A) (A) (A) (A) (A) (A) (A) (A) (A) (A) (A) (A)
                 (A)
       Virtual   (A) (A) (A) (A) (A) (A) (A) (A) (A) (A) (A) (A)
                 (A) (A) (A) (A) (A) (A) (A) (A) (A) (A) (A) (A)
                 (A) (A) (A) (A) (A) (A) (A) (A) (A) (A) (A) (A)
                 (A) (A) (A) (A) (A) (A) (A) (A) (A) (A) (A) (A)
                 (A) (A) (A) (A) (A) (A) (A) (A) (A) (A) (A) (A)
                 (A) (A) (A) (A) (A) (A) (A) (A) (A) (A) (A) (A)
                 (A) (A) (A) (A) (A) (A) (A) (A) (A) (A) (A) (A)
                 (A) (A) (A) (A) (A) (A) (A) (A) (A) (A) (A) (A)
                 (A) (A) (A) (A) (A) (A) (A) (A) (A) (A) (A) (A)
                 (A) (A) (A) (A) (A) (A) (A) (A) (A) (A) (A) (A)
                 (A)
 The electronic state is 1-A.
 Alpha  occ. eigenvalues --  -78.01238 -19.47294 -19.47293 -19.40868 -19.39887
 Alpha  occ. eigenvalues --   -6.78314  -4.90184  -4.90119  -4.89925  -0.99783
 Alpha  occ. eigenvalues --   -0.94662  -0.89276  -0.86766  -0.48049  -0.40286
 Alpha  occ. eigenvalues --   -0.37371  -0.33079  -0.32224  -0.26593  -0.25489
 Alpha  occ. eigenvalues --   -0.22704  -0.20183  -0.18099  -0.17392  -0.16352
 Alpha virt. eigenvalues --    0.11103   0.12957   0.15179   0.15610   0.16798
 Alpha virt. eigenvalues --    0.18417   0.19158   0.19978   0.22185   0.24988
 Alpha virt. eigenvalues --    0.27149   0.29855   0.31632   0.32119   0.32294
 Alpha virt. eigenvalues --    0.33152   0.33566   0.34228   0.35074   0.35425
 Alpha virt. eigenvalues --    0.36427   0.36677   0.38357   0.38407   0.39299
 Alpha virt. eigenvalues --    0.39431   0.40331   0.42854   0.43569   0.45503
 Alpha virt. eigenvalues --    0.46705   0.49770   0.52040   0.53033   0.55294
 Alpha virt. eigenvalues --    0.56271   0.56986   0.57224   0.60683   0.60725
 Alpha virt. eigenvalues --    0.63780   0.64769   0.72068   0.72602   0.75937
 Alpha virt. eigenvalues --    0.77067   0.77406   0.81612   0.82666   0.83504
 Alpha virt. eigenvalues --    0.84016   0.86812   0.87976   0.90919   0.91049
 Alpha virt. eigenvalues --    0.91728   0.94182   0.97000   0.98826   1.00564
 Alpha virt. eigenvalues --    1.02053   1.03476   1.03752   1.03883   1.10632
 Alpha virt. eigenvalues --    1.10831   1.15182   1.16653   1.20887   1.21260
 Alpha virt. eigenvalues --    1.26257   1.28075   1.30284   1.30396   1.34330
 Alpha virt. eigenvalues --    1.34946   1.37281   1.47208   1.53288   1.59668
 Alpha virt. eigenvalues --    1.61213   1.61626   1.63242   1.68854   1.73354
 Alpha virt. eigenvalues --    1.77881   1.81696   1.88323   1.92451   2.00165
 Alpha virt. eigenvalues --    2.01905   2.29658   2.30469   2.42675   2.48139
 Alpha virt. eigenvalues --    2.62108   2.62144   2.64246   2.69805   2.70038
 Alpha virt. eigenvalues --    2.73144   2.73564   2.74648   2.77548   2.78180
 Alpha virt. eigenvalues --    2.78875   2.88119   2.89726   2.92182   2.99664
 Alpha virt. eigenvalues --    3.15784   3.21362   3.33837   3.45315   3.47418
 Alpha virt. eigenvalues --    7.39504  42.91483  42.94836  43.13824  43.20955
 Alpha virt. eigenvalues --  164.48669
          Condensed to atoms (all electrons):
               1          2          3          4          5          6
     1  P   14.682625  -0.560949  -0.360351   0.080216  -0.075873   0.080134
     2  O   -0.560949   9.163338   0.082956  -0.034225   0.003121  -0.034085
     3  O   -0.360351   0.082956   8.923121   0.048547  -0.005231   0.048582
     4  O    0.080216  -0.034225   0.048547   7.936925   0.107772  -0.093158
     5  H   -0.075873   0.003121  -0.005231   0.107772   1.347705   0.006625
     6  O    0.080134  -0.034085   0.048582  -0.093158   0.006625   7.937151
     7  H   -0.075709   0.003117  -0.005273   0.006631   0.000296   0.107664
               7
     1  P   -0.075709
     2  O    0.003117
     3  O   -0.005273
     4  O    0.006631
     5  H    0.000296
     6  O    0.107664
     7  H    1.347521
 Mulliken charges:
               1
     1  P    1.229907
     2  O   -0.623273
     3  O   -0.732351
     4  O   -0.052709
     5  H   -0.384415
     6  O   -0.052913
     7  H   -0.384247
 Sum of Mulliken charges =  -1.00000
 Mulliken charges with hydrogens summed into heavy atoms:
               1
     1  P    1.229907
     2  O   -0.623273
     3  O   -0.732351
     4  O   -0.437124
     6  O   -0.437160
 Electronic spatial extent (au):  <R**2>=            419.5187
 Charge=             -1.0000 electrons
 Dipole moment (field-independent basis, Debye):
    X=             -0.0139    Y=             -3.3492    Z=             -1.3766  Tot=              3.6211
 Quadrupole moment (field-independent basis, Debye-Ang):
   XX=            -40.0073   YY=            -44.5735   ZZ=            -47.2952
   XY=             -0.0184   XZ=              0.0075   YZ=              2.5005
 Traceless Quadrupole moment (field-independent basis, Debye-Ang):
   XX=              3.9514   YY=             -0.6148   ZZ=             -3.3366
   XY=             -0.0184   XZ=              0.0075   YZ=              2.5005
 Octapole moment (field-independent basis, Debye-Ang**2):
  XXX=             -0.0909  YYY=            -19.2883  ZZZ=             -6.1572  XYY=             -0.0188
  XXY=             -7.5278  XXZ=              5.1290  XZZ=              0.0235  YZZ=              6.0409
  YYZ=             -8.9398  XYZ=             -0.0535
 Hexadecapole moment (field-independent basis, Debye-Ang**3):
 XXXX=           -186.6695 YYYY=           -209.1969 ZZZZ=           -182.3092 XXXY=              0.1401
 XXXZ=              0.0244 YYYX=             -0.2363 YYYZ=              4.1162 ZZZX=              0.0199
 ZZZY=              5.5177 XXYY=            -50.8731 XXZZ=            -65.6542 YYZZ=            -65.2060
 XXYZ=              2.6452 YYXZ=             -0.0106 ZZXY=             -0.0015
 N-N= 2.622134740329D+02 E-N=-2.060824330850D+03  KE= 6.408963579072D+02
  Exact polarizability:      44.748       0.013      47.468      -0.001      -0.343      43.139
 Approx polarizability:      47.948       0.030      54.967      -0.008      -2.036      48.270
 No NMR shielding tensors so no spin-rotation constants.
 Leave Link  601 at Mon Nov 30 17:35:53 2020, MaxMem= 21474836480 cpu:              46.2 elap:               2.0
 (Enter /apps/gaussian/g16c01/g16/l9999.exe)

 ----------------------------------------------------------------------

 Electric dipole moment (input orientation):
 (Debye = 10**-18 statcoulomb cm , SI units = C m)
                  (au)            (Debye)         (10**-30 SI)
   Tot        0.142464D+01      0.362108D+01      0.120786D+02
   x          0.134909D+01      0.342905D+01      0.114381D+02
   y          0.601696D-01      0.152936D+00      0.510139D+00
   z          0.453799D+00      0.115344D+01      0.384747D+01

 Dipole polarizability, Alpha (input orientation).
 (esu units = cm**3 , SI units = C**2 m**2 J**-1)
 Alpha(0;0):
               (au)            (10**-24 esu)      (10**-40 SI)
   iso        0.451185D+02      0.668587D+01      0.743903D+01
   aniso      0.383627D+01      0.568477D+00      0.632516D+00
   xx         0.474061D+02      0.702486D+01      0.781621D+01
   yx         0.973467D-02      0.144253D-02      0.160503D-02
   yy         0.447395D+02      0.662971D+01      0.737655D+01
   zx        -0.616767D+00     -0.913955D-01     -0.101691D+00
   zy        -0.124268D+00     -0.184146D-01     -0.204891D-01
   zz         0.432099D+02      0.640304D+01      0.712435D+01

 First dipole hyperpolarizability, Beta (input orientation).
 ||, _|_  parallel and perpendicular components, (z) with respect to z axis,
 vector components x,y,z.  Values do not include the 1/n! factor of 1/2.
 (esu units = statvolt**-1 cm**4 , SI units = C**3 m**3 J**-2)
 Beta(0;0,0):
               (au)            (10**-30 esu)      (10**-50 SI)
   || (z)    -0.956945D+00     -0.826726D-02     -0.306831D-02
   _|_(z)    -0.318982D+00     -0.275575D-02     -0.102277D-02
   x          0.168910D+03      0.145925D+01      0.541588D+00
   y          0.305294D+01      0.263750D-01      0.978883D-02
   z         -0.478473D+01     -0.413363D-01     -0.153416D-01
   ||         0.338011D+02      0.292016D+00      0.108379D+00
   xxx        0.578519D+02      0.499795D+00      0.185494D+00
   xxy        0.139541D+01      0.120553D-01      0.447420D-02
   yxy        0.556171D+01      0.480489D-01      0.178329D-01
   yyy       -0.168306D+01     -0.145404D-01     -0.539651D-02
   xxz        0.621750D+01      0.537144D-01      0.199356D-01
   yxz       -0.628042D+00     -0.542579D-02     -0.201373D-02
   yyz       -0.914380D+01     -0.789953D-01     -0.293183D-01
   zxz       -0.711014D+01     -0.614260D-01     -0.227977D-01
   zyz        0.130530D+01      0.112767D-01      0.418525D-02
   zzz        0.133139D+01      0.115022D-01      0.426891D-02

 ----------------------------------------------------------------------

 Dipole orientation:
    15          0.49606186          1.86270624          1.76531853
     8         -0.38012489          1.89111263         -0.92625126
     8          3.20420143          1.77466020          2.69815814
     8         -1.01002612         -0.56465532          3.24997627
     1          0.26666562         -1.05335280          4.48849597
     8         -0.84914181          4.38306649          3.25010475
     1          0.45711114          4.78839059          4.48811831

 Electric dipole moment (dipole orientation):
 (Debye = 10**-18 statcoulomb cm , SI units = C m)
                  (au)            (Debye)         (10**-30 SI)
   Tot        0.142464D+01      0.362108D+01      0.120786D+02
   x          0.000000D+00      0.000000D+00      0.000000D+00
   y          0.000000D+00      0.000000D+00      0.000000D+00
   z          0.142464D+01      0.362108D+01      0.120786D+02

 Dipole polarizability, Alpha (dipole orientation).
 (esu units = cm**3 , SI units = C**2 m**2 J**-1)
 Alpha(0;0):
               (au)            (10**-24 esu)      (10**-40 SI)
   iso        0.451185D+02      0.668587D+01      0.743903D+01
   aniso      0.383627D+01      0.568477D+00      0.632516D+00
   xx         0.440070D+02      0.652117D+01      0.725578D+01
   yx         0.240439D-01      0.356293D-02      0.396430D-02
   yy         0.447475D+02      0.663090D+01      0.737787D+01
   zx         0.176543D+01      0.261610D+00      0.291080D+00
   zy        -0.555057D-01     -0.822510D-02     -0.915166D-02
   zz         0.466009D+02      0.690554D+01      0.768345D+01

 First dipole hyperpolarizability, Beta (dipole orientation).
 ||, _|_  parallel and perpendicular components, (z) with respect to z axis,
 vector components x,y,z.  Values do not include the 1/n! factor of 1/2.
 (esu units = statvolt**-1 cm**4 , SI units = C**3 m**3 J**-2)
 Beta(0;0,0):
               (au)            (10**-30 esu)      (10**-50 SI)
   || (z)     0.317116D+02      0.273963D+00      0.101679D+00
   _|_(z)     0.105705D+02      0.913211D-01      0.338929D-01
   x          0.584708D+02      0.505142D+00      0.187478D+00
   y         -0.187266D+01     -0.161783D-01     -0.600443D-02
   z          0.158558D+03      0.136982D+01      0.508394D+00
   ||         0.338011D+02      0.292016D+00      0.108379D+00
   xxx       -0.728849D+01     -0.629669D-01     -0.233695D-01
   xxy        0.924901D+00      0.799043D-02      0.296557D-02
   yxy        0.105333D+02      0.909993D-01      0.337735D-01
   yyy       -0.102084D+01     -0.881926D-02     -0.327318D-02
   xxz       -0.202909D+01     -0.175298D-01     -0.650600D-02
   yxz        0.152302D+00      0.131577D-02      0.488336D-03
   yyz        0.229274D+01      0.198075D-01      0.735136D-02
   zxz        0.162455D+02      0.140348D+00      0.520889D-01
   zyz       -0.528282D+00     -0.456395D-02     -0.169386D-02
   zzz        0.525890D+02      0.454328D+00      0.168619D+00

 ----------------------------------------------------------------------
 Unable to Open any file for archive entry.
 1\1\GINC-GADI-CPU-CLX-1638\SP\RM062X\Gen\H2O4P1(1-)\TM3124\30-Nov-2020
 \0\\#P M062X/Gen field=Z+8 int=(grid=ultrafine) polar=Dipole\\dhp\\-1,
 1\P,0,0.9387,1.01586,0.00735\O,0,-0.55886,0.98478,-0.00791\O,0,1.866,0
 .94671,-1.19053\O,0,1.4667,-0.20955,1.06658\H,0,2.3113,-0.46062,0.6465
 \O,0,1.41458,2.40255,0.8754\H,0,2.24958,2.62345,0.42044\\Version=ES64L
 -G16RevC.01\State=1-A\HF=-643.6081906\RMSD=3.496e-09\Dipole=1.3490936,
 0.0601696,0.4537989\Polar=47.4060762,0.0097347,44.739498,-0.6167671,-0
 .1242682,43.2098877\HyperPolar=57.851873,1.3954141,5.5617144,-1.683063
 1,6.2175032,-0.6280417,-9.1438001,-7.1101353,1.3052963,1.3313879\Quadr
 upole=-0.2287925,2.9113025,-2.6825099,0.0621056,1.7158179,-0.3782092\P
 G=C01 [X(H2O4P1)]\\@
 The archive entry for this job was punched.


 IF AT FIRST YOU DON'T SUCCEED, TRY, TRY AGAIN.
 THEN GIVE UP;
 THERE'S NO USE BEING A DAMN FOOL ABOUT IT.

                                 -- W. C. FIELDS
 Job cpu time:       0 days  0 hours 13 minutes 20.7 seconds.
 Elapsed time:       0 days  0 hours  0 minutes 26.9 seconds.
 File lengths (MBytes):  RWF=     15 Int=      0 D2E=      0 Chk=      3 Scr=      1
 Normal termination of Gaussian 16 at Mon Nov 30 17:35:53 2020.
