dhp                                                                     
SP        RM062X                                                      Gen                 
Number of atoms                            I                7
Info1-9                                    I   N=           9
         113         113           0           0           0         110
           1          18       -5502
Full Title                                 C   N=           1
dhp         
Route                                      C   N=           5
#P M062X/Gen field=Z+8 int=(grid=ultrafine) polar=Dipole    
Charge                                     I               -1
Multiplicity                               I                1
Number of electrons                        I               50
Number of alpha electrons                  I               25
Number of beta electrons                   I               25
Number of basis functions                  I              146
Number of independent functions            I              146
Number of point charges in /Mol/           I                0
Number of translation vectors              I                0
Atomic numbers                             I   N=           7
          15           8           8           8           1           8
           1
Nuclear charges                            R   N=           7
  1.50000000E+01  8.00000000E+00  8.00000000E+00  8.00000000E+00  1.00000000E+00
  8.00000000E+00  1.00000000E+00
Current cartesian coordinates              R   N=          21
  9.96731771E-04  2.20234617E-01  2.76478681E-01  1.26116075E-02  3.04296290E+00
  4.88912571E-01 -6.36173205E-03 -1.67265143E+00  2.42796422E+00  2.47230083E+00
 -6.20740897E-01 -1.60766835E+00  2.91270208E+00 -2.25921824E+00 -8.83695398E-01
 -2.47799540E+00 -6.00701404E-01 -1.60688026E+00 -2.93209549E+00 -2.23525441E+00
 -8.82110277E-01
Number of symbols in /Mol/                 I                0
Int Atom Types                             I   N=           7
           0           0           0           0           0           0
           0
Force Field                                I                0
Atom Types                                 C   N=           7
                                                            
                        
MM charges                                 R   N=           7
  0.00000000E+00  0.00000000E+00  0.00000000E+00  0.00000000E+00  0.00000000E+00
  0.00000000E+00  0.00000000E+00
Integer atomic weights                     I   N=           7
          31          16          16          16           1          16
           1
Real atomic weights                        R   N=           7
  3.09737634E+01  1.59949146E+01  1.59949146E+01  1.59949146E+01  1.00782504E+00
  1.59949146E+01  1.00782504E+00
Atom fragment info                         I   N=           7
           0           0           0           0           0           0
           0
Atom residue num                           I   N=           7
           0           0           0           0           0           0
           0
Nuclear spins                              I   N=           7
           1           0           0           0           1           0
           1
Nuclear ZEff                               R   N=           7
 -1.29400000E+01 -5.60000000E+00 -5.60000000E+00 -5.60000000E+00 -1.00000000E+00
 -5.60000000E+00 -1.00000000E+00
Nuclear ZNuc                               R   N=           7
  1.50000000E+01  8.00000000E+00  8.00000000E+00  8.00000000E+00  1.00000000E+00
  8.00000000E+00  1.00000000E+00
Nuclear QMom                               R   N=           7
  0.00000000E+00  0.00000000E+00  0.00000000E+00  0.00000000E+00  0.00000000E+00
  0.00000000E+00  0.00000000E+00
Nuclear GFac                               R   N=           7
  1.13160000E+00  0.00000000E+00  0.00000000E+00  0.00000000E+00  2.79284600E+00
  0.00000000E+00  2.79284600E+00
MicOpt                                     I   N=           7
          -1          -1          -1          -1          -1          -1
          -1
Number of residues                         I                0
Number of secondary structures             I                0
SymInf integers                            I   N=          26
           1           1           1           1           1           0
           0           0           0           0           0           0
           0           0           0           0           0           0
           0           0           0           0           0           0
           0           0
RotTr to input orientation                 R   N=          12
  1.58467082E-02 -9.97199940E-01  7.30832468E-02 -9.97863049E-01 -1.11386609E-02
  6.43837374E-02 -6.33894096E-02 -7.39473418E-02 -9.95245484E-01  2.01115993E+00
  1.94358910E+00  2.74801273E-01
Number of contracted shells                I               64
Number of primitive shells                 I              128
Pure/Cartesian d shells                    I                0
Pure/Cartesian f shells                    I                0
Highest angular momentum                   I                2
Largest degree of contraction              I                6
Shell types                                I   N=          64
           0           0           0           0           0           0
           0           1           1           1           1           1
          -2          -2           0           0           0           0
           0           1           1           1          -2          -2
           0           0           0           0           0           1
           1           1          -2          -2           0           0
           0           0           0           1           1           1
          -2          -2           0           0           0           1
           1           0           0           0           0           0
           1           1           1          -2          -2           0
           0           0           1           1
Number of primitives per shell             I   N=          64
           6           3           1           1           1           1
           1           6           1           1           1           1
           2           2           5           2           1           1
           1           4           1           1           2           2
           5           2           1           1           1           4
           1           1           2           2           5           2
           1           1           1           4           1           1
           2           2           4           1           1           2
           2           5           2           1           1           1
           4           1           1           2           2           4
           1           1           2           2
Shell to atom map                          I   N=          64
           1           1           1           1           1           1
           1           1           1           1           1           1
           1           1           2           2           2           2
           2           2           2           2           2           2
           3           3           3           3           3           3
           3           3           3           3           4           4
           4           4           4           4           4           4
           4           4           5           5           5           5
           5           6           6           6           6           6
           6           6           6           6           6           7
           7           7           7           7
Primitive exponents                        R   N=         128
  7.74924300E+04  1.16057900E+04  2.64596000E+03  7.54980000E+02  2.48750000E+02
  9.11570000E+01  9.11570000E+01  3.62260000E+01  1.52110000E+01  4.71380000E+00
  1.78270000E+00  3.42500000E-01  1.24600000E-01  4.53000000E-02  3.84840000E+02
  9.05520000E+01  2.88060000E+01  1.06880000E+01  4.25210000E+00  1.74050000E+00
  5.97900000E-01  2.29200000E-01  8.38000000E-02  3.06000000E-02  5.97900000E-01
  2.29200000E-01  8.38000000E-02  3.06000000E-02  1.06622850E+04  1.59970970E+03
  3.64725260E+02  1.03651790E+02  3.39058050E+01  1.22874690E+01  4.75680500E+00
  1.00427100E+00  3.00686000E-01  9.00300000E-02  3.48564630E+01  7.84313100E+00
  2.30624900E+00  7.23164000E-01  2.14882000E-01  6.38500000E-02  2.30620000E+00
  7.23200000E-01  2.14900000E-01  6.39000000E-02  1.06622850E+04  1.59970970E+03
  3.64725260E+02  1.03651790E+02  3.39058050E+01  1.22874690E+01  4.75680500E+00
  1.00427100E+00  3.00686000E-01  9.00300000E-02  3.48564630E+01  7.84313100E+00
  2.30624900E+00  7.23164000E-01  2.14882000E-01  6.38500000E-02  2.30620000E+00
  7.23200000E-01  2.14900000E-01  6.39000000E-02  1.06622850E+04  1.59970970E+03
  3.64725260E+02  1.03651790E+02  3.39058050E+01  1.22874690E+01  4.75680500E+00
  1.00427100E+00  3.00686000E-01  9.00300000E-02  3.48564630E+01  7.84313100E+00
  2.30624900E+00  7.23164000E-01  2.14882000E-01  6.38500000E-02  2.30620000E+00
  7.23200000E-01  2.14900000E-01  6.39000000E-02  3.36850140E+01  5.09478800E+00
  1.15878600E+00  3.25840000E-01  1.02741000E-01  3.24000000E-02  1.15880000E+00
  3.25800000E-01  1.02700000E-01  3.24000000E-02  1.06622850E+04  1.59970970E+03
  3.64725260E+02  1.03651790E+02  3.39058050E+01  1.22874690E+01  4.75680500E+00
  1.00427100E+00  3.00686000E-01  9.00300000E-02  3.48564630E+01  7.84313100E+00
  2.30624900E+00  7.23164000E-01  2.14882000E-01  6.38500000E-02  2.30620000E+00
  7.23200000E-01  2.14900000E-01  6.39000000E-02  3.36850140E+01  5.09478800E+00
  1.15878600E+00  3.25840000E-01  1.02741000E-01  3.24000000E-02  1.15880000E+00
  3.25800000E-01  1.02700000E-01  3.24000000E-02
Contraction coefficients                   R   N=         128
  7.86998727E-04  6.10899012E-03  3.13679492E-02  1.24290799E-01  3.80681384E-01
  5.59988094E-01  1.63997236E-01  6.25927902E-01  2.62211378E-01  1.00000000E+00
  1.00000000E+00  1.00000000E+00  1.00000000E+00  1.00000000E+00  3.76499575E-03
  2.90099673E-02  1.22952861E-01  3.06469654E-01  4.41348502E-01  2.95816666E-01
  1.00000000E+00  1.00000000E+00  1.00000000E+00  1.00000000E+00  2.57098289E-01
  8.07536332E-01  6.80799999E-01  4.12315493E-01  1.90604745E-03  1.46782352E-02
  7.43263084E-02  2.75759025E-01  7.19364732E-01  6.69996511E-01  3.66229217E-01
  1.00000000E+00  1.00000000E+00  1.00000000E+00  1.99439284E-02  1.25155543E-01
  3.92261182E-01  6.27670401E-01  1.00000000E+00  1.00000000E+00  2.83613619E-01
  8.10264660E-01  6.73833443E-01  4.58004278E-01  1.90604745E-03  1.46782352E-02
  7.43263084E-02  2.75759025E-01  7.19364732E-01  6.69996511E-01  3.66229217E-01
  1.00000000E+00  1.00000000E+00  1.00000000E+00  1.99439284E-02  1.25155543E-01
  3.92261182E-01  6.27670401E-01  1.00000000E+00  1.00000000E+00  2.83613619E-01
  8.10264660E-01  6.73833443E-01  4.58004278E-01  1.90604745E-03  1.46782352E-02
  7.43263084E-02  2.75759025E-01  7.19364732E-01  6.69996511E-01  3.66229217E-01
  1.00000000E+00  1.00000000E+00  1.00000000E+00  1.99439284E-02  1.25155543E-01
  3.92261182E-01  6.27670401E-01  1.00000000E+00  1.00000000E+00  2.83613619E-01
  8.10264660E-01  6.73833443E-01  4.58004278E-01  8.76040453E-03  6.54229551E-02
  2.92849871E-01  7.27207417E-01  1.00000000E+00  1.00000000E+00  1.86447366E-01
  8.73088966E-01  9.76214574E-01  3.48056130E-02  1.90604745E-03  1.46782352E-02
  7.43263084E-02  2.75759025E-01  7.19364732E-01  6.69996511E-01  3.66229217E-01
  1.00000000E+00  1.00000000E+00  1.00000000E+00  1.99439284E-02  1.25155543E-01
  3.92261182E-01  6.27670401E-01  1.00000000E+00  1.00000000E+00  2.83613619E-01
  8.10264660E-01  6.73833443E-01  4.58004278E-01  8.76040453E-03  6.54229551E-02
  2.92849871E-01  7.27207417E-01  1.00000000E+00  1.00000000E+00  1.86447366E-01
  8.73088966E-01  9.76214574E-01  3.48056130E-02
Coordinates of each shell                  R   N=         192
  9.96731771E-04  2.20234617E-01  2.76478681E-01  9.96731771E-04  2.20234617E-01
  2.76478681E-01  9.96731771E-04  2.20234617E-01  2.76478681E-01  9.96731771E-04
  2.20234617E-01  2.76478681E-01  9.96731771E-04  2.20234617E-01  2.76478681E-01
  9.96731771E-04  2.20234617E-01  2.76478681E-01  9.96731771E-04  2.20234617E-01
  2.76478681E-01  9.96731771E-04  2.20234617E-01  2.76478681E-01  9.96731771E-04
  2.20234617E-01  2.76478681E-01  9.96731771E-04  2.20234617E-01  2.76478681E-01
  9.96731771E-04  2.20234617E-01  2.76478681E-01  9.96731771E-04  2.20234617E-01
  2.76478681E-01  9.96731771E-04  2.20234617E-01  2.76478681E-01  9.96731771E-04
  2.20234617E-01  2.76478681E-01  1.26116075E-02  3.04296290E+00  4.88912571E-01
  1.26116075E-02  3.04296290E+00  4.88912571E-01  1.26116075E-02  3.04296290E+00
  4.88912571E-01  1.26116075E-02  3.04296290E+00  4.88912571E-01  1.26116075E-02
  3.04296290E+00  4.88912571E-01  1.26116075E-02  3.04296290E+00  4.88912571E-01
  1.26116075E-02  3.04296290E+00  4.88912571E-01  1.26116075E-02  3.04296290E+00
  4.88912571E-01  1.26116075E-02  3.04296290E+00  4.88912571E-01  1.26116075E-02
  3.04296290E+00  4.88912571E-01 -6.36173205E-03 -1.67265143E+00  2.42796422E+00
 -6.36173205E-03 -1.67265143E+00  2.42796422E+00 -6.36173205E-03 -1.67265143E+00
  2.42796422E+00 -6.36173205E-03 -1.67265143E+00  2.42796422E+00 -6.36173205E-03
 -1.67265143E+00  2.42796422E+00 -6.36173205E-03 -1.67265143E+00  2.42796422E+00
 -6.36173205E-03 -1.67265143E+00  2.42796422E+00 -6.36173205E-03 -1.67265143E+00
  2.42796422E+00 -6.36173205E-03 -1.67265143E+00  2.42796422E+00 -6.36173205E-03
 -1.67265143E+00  2.42796422E+00  2.47230083E+00 -6.20740897E-01 -1.60766835E+00
  2.47230083E+00 -6.20740897E-01 -1.60766835E+00  2.47230083E+00 -6.20740897E-01
 -1.60766835E+00  2.47230083E+00 -6.20740897E-01 -1.60766835E+00  2.47230083E+00
 -6.20740897E-01 -1.60766835E+00  2.47230083E+00 -6.20740897E-01 -1.60766835E+00
  2.47230083E+00 -6.20740897E-01 -1.60766835E+00  2.47230083E+00 -6.20740897E-01
 -1.60766835E+00  2.47230083E+00 -6.20740897E-01 -1.60766835E+00  2.47230083E+00
 -6.20740897E-01 -1.60766835E+00  2.91270208E+00 -2.25921824E+00 -8.83695398E-01
  2.91270208E+00 -2.25921824E+00 -8.83695398E-01  2.91270208E+00 -2.25921824E+00
 -8.83695398E-01  2.91270208E+00 -2.25921824E+00 -8.83695398E-01  2.91270208E+00
 -2.25921824E+00 -8.83695398E-01 -2.47799540E+00 -6.00701404E-01 -1.60688026E+00
 -2.47799540E+00 -6.00701404E-01 -1.60688026E+00 -2.47799540E+00 -6.00701404E-01
 -1.60688026E+00 -2.47799540E+00 -6.00701404E-01 -1.60688026E+00 -2.47799540E+00
 -6.00701404E-01 -1.60688026E+00 -2.47799540E+00 -6.00701404E-01 -1.60688026E+00
 -2.47799540E+00 -6.00701404E-01 -1.60688026E+00 -2.47799540E+00 -6.00701404E-01
 -1.60688026E+00 -2.47799540E+00 -6.00701404E-01 -1.60688026E+00 -2.47799540E+00
 -6.00701404E-01 -1.60688026E+00 -2.93209549E+00 -2.23525441E+00 -8.82110277E-01
 -2.93209549E+00 -2.23525441E+00 -8.82110277E-01 -2.93209549E+00 -2.23525441E+00
 -8.82110277E-01 -2.93209549E+00 -2.23525441E+00 -8.82110277E-01 -2.93209549E+00
 -2.23525441E+00 -8.82110277E-01
Num ILSW                                   I              100
ILSW                                       I   N=         100
           0           0           0           0           2           0
           0           0           0           0        4336          -1
           5           0           0           0           0           0
           0           0           0           0           0           0
           1           0           0           0           0           0
           0           0      100000           0          -1           0
           0           0           0           0           0           0
           0           0           0           1           0           0
           0 -2000000000           1           0           0           0
           0           0           4          52           0           0
           0           0          55           0           0           0
           0           0           0           7           0           1
           0           0           0           0           0           0
           0           0           0           0           0           0
           0           0           0           0           0           0
           0           0           0           0           0           0
           0           0           0           0
Num RLSW                                   I               52
RLSW                                       R   N=          52
  1.00000000E+00  1.00000000E+00  1.00000000E+00  1.00000000E+00  5.40000000E-01
  0.00000000E+00  0.00000000E+00  1.00000000E+00  0.00000000E+00  0.00000000E+00
  0.00000000E+00  0.00000000E+00  1.00000000E+00  0.00000000E+00  0.00000000E+00
  0.00000000E+00  0.00000000E+00  1.00000000E+00  0.00000000E+00  0.00000000E+00
  0.00000000E+00  0.00000000E+00  1.00000000E+00  0.00000000E+00  0.00000000E+00
  0.00000000E+00  0.00000000E+00  1.00000000E+00  0.00000000E+00  0.00000000E+00
  0.00000000E+00  0.00000000E+00  1.00000000E+00  0.00000000E+00  0.00000000E+00
  0.00000000E+00  0.00000000E+00  0.00000000E+00  1.00000000E+00  1.00000000E+00
  0.00000000E+00  1.00000000E+00  0.00000000E+00  0.00000000E+00  0.00000000E+00
  0.00000000E+00  0.00000000E+00  0.00000000E+00  0.00000000E+00  0.00000000E+00
  0.00000000E+00  0.00000000E+00
MxBond                                     I                4
NBond                                      I   N=           7
           4           1           1           2           1           2
           1
IBond                                      I   N=          28
           2           3           4           6           1           0
           0           0           1           0           0           0
           1           5           0           0           4           0
           0           0           1           7           0           0
           6           0           0           0
RBond                                      R   N=          28
  2.00000000E+00  2.00000000E+00  1.00000000E+00  1.00000000E+00  2.00000000E+00
  0.00000000E+00  0.00000000E+00  0.00000000E+00  2.00000000E+00  0.00000000E+00
  0.00000000E+00  0.00000000E+00  1.00000000E+00  1.00000000E+00  0.00000000E+00
  0.00000000E+00  1.00000000E+00  0.00000000E+00  0.00000000E+00  0.00000000E+00
  1.00000000E+00  1.00000000E+00  0.00000000E+00  0.00000000E+00  1.00000000E+00
  0.00000000E+00  0.00000000E+00  0.00000000E+00
Virial Ratio                               R      2.004231312414739E+00
SCF Energy                                 R     -6.436081906229451E+02
Total Energy                               R     -6.436081906229451E+02
RMS Density                                R      3.495779008063778E-09
Job Status                                 I                1
Nuclear derivative order                   I                0
External E-field                           R   N=          35
  0.00000000E+00  0.00000000E+00  0.00000000E+00  8.00000000E-04  0.00000000E+00
  0.00000000E+00  0.00000000E+00  0.00000000E+00  0.00000000E+00  0.00000000E+00
  0.00000000E+00  0.00000000E+00  0.00000000E+00  0.00000000E+00  0.00000000E+00
  0.00000000E+00  0.00000000E+00  0.00000000E+00  0.00000000E+00  0.00000000E+00
  0.00000000E+00  0.00000000E+00  0.00000000E+00  0.00000000E+00  0.00000000E+00
  0.00000000E+00  0.00000000E+00  0.00000000E+00  0.00000000E+00  0.00000000E+00
  0.00000000E+00  0.00000000E+00  0.00000000E+00  0.00000000E+00  0.00000000E+00
IOpCl                                      I                0
IROHF                                      I                0
Alpha Orbital Energies                     R   N=         146
 -7.80123799E+01 -1.94729409E+01 -1.94729311E+01 -1.94086772E+01 -1.93988671E+01
 -6.78313996E+00 -4.90183525E+00 -4.90118711E+00 -4.89924856E+00 -9.97830962E-01
 -9.46616753E-01 -8.92758552E-01 -8.67659250E-01 -4.80493617E-01 -4.02862538E-01
 -3.73712589E-01 -3.30790431E-01 -3.22235924E-01 -2.65931120E-01 -2.54891867E-01
 -2.27044693E-01 -2.01832559E-01 -1.80985406E-01 -1.73922946E-01 -1.63519075E-01
  1.11031379E-01  1.29568166E-01  1.51791956E-01  1.56101254E-01  1.67983803E-01
  1.84173334E-01  1.91577846E-01  1.99779885E-01  2.21854995E-01  2.49878102E-01
  2.71487436E-01  2.98548164E-01  3.16324277E-01  3.21190650E-01  3.22937042E-01
  3.31518693E-01  3.35656491E-01  3.42284706E-01  3.50736653E-01  3.54248865E-01
  3.64265037E-01  3.66767275E-01  3.83573575E-01  3.84066814E-01  3.92988305E-01
  3.94314136E-01  4.03314088E-01  4.28541595E-01  4.35691897E-01  4.55032208E-01
  4.67051362E-01  4.97704732E-01  5.20396326E-01  5.30334278E-01  5.52942455E-01
  5.62705257E-01  5.69861188E-01  5.72236267E-01  6.06833107E-01  6.07254926E-01
  6.37795526E-01  6.47691078E-01  7.20684231E-01  7.26021118E-01  7.59366850E-01
  7.70667434E-01  7.74056104E-01  8.16115236E-01  8.26660279E-01  8.35038404E-01
  8.40158351E-01  8.68123124E-01  8.79760772E-01  9.09194890E-01  9.10490671E-01
  9.17279087E-01  9.41818627E-01  9.70004471E-01  9.88260865E-01  1.00563930E+00
  1.02053209E+00  1.03476469E+00  1.03751716E+00  1.03882798E+00  1.10632380E+00
  1.10830937E+00  1.15181677E+00  1.16652724E+00  1.20887021E+00  1.21259989E+00
  1.26257121E+00  1.28074515E+00  1.30283814E+00  1.30395637E+00  1.34329958E+00
  1.34946125E+00  1.37280898E+00  1.47208268E+00  1.53287974E+00  1.59667656E+00
  1.61213500E+00  1.61626122E+00  1.63242245E+00  1.68854350E+00  1.73353591E+00
  1.77880567E+00  1.81696075E+00  1.88322726E+00  1.92450875E+00  2.00165080E+00
  2.01904605E+00  2.29657775E+00  2.30469453E+00  2.42674521E+00  2.48139036E+00
  2.62108308E+00  2.62144144E+00  2.64245736E+00  2.69805040E+00  2.70037608E+00
  2.73144384E+00  2.73564430E+00  2.74647592E+00  2.77547817E+00  2.78180260E+00
  2.78874624E+00  2.88119278E+00  2.89726199E+00  2.92182357E+00  2.99663707E+00
  3.15783516E+00  3.21361924E+00  3.33837337E+00  3.45314937E+00  3.47417926E+00
  7.39504191E+00  4.29148317E+01  4.29483596E+01  4.31382420E+01  4.32095527E+01
  1.64486686E+02
Alpha MO coefficients                      R   N=       21316
  4.16400426E-01  6.48366532E-01  1.43335188E-02 -4.71442877E-03  3.00112743E-03
  7.96218926E-04 -1.75367690E-03 -9.82119130E-08 -2.26112589E-05 -3.01089987E-05
  1.36695602E-07  4.32853332E-05 -3.22501729E-05  5.96590074E-07  2.46285033E-05
  7.14240689E-04  5.09521611E-06  1.20147368E-03  1.48192847E-03 -2.19401129E-07
  2.22964884E-05 -1.69248681E-04 -1.14330751E-04 -6.76740845E-07 -1.47625567E-04
 -3.37405823E-04  2.66758142E-06  1.34994016E-04  7.22619437E-07  1.40675502E-04
  3.72564793E-04 -2.79354508E-06  4.47649433E-06 -1.65554002E-05  1.75607064E-04
 -5.30114564E-04 -1.10087692E-03  1.52394729E-07  3.46867277E-05  1.98660153E-05
  3.45607379E-06  8.57910679E-04 -8.39618342E-05  2.90655140E-06  7.46214726E-04
 -1.03880718E-04  5.65829394E-05 -5.93447084E-08 -1.52459389E-05  1.03622023E-04
 -8.55016546E-07  2.50033416E-04  4.86552522E-08  9.16633877E-06  4.12111012E-04
 -3.32496287E-06  4.25432277E-06 -1.57318660E-05  1.62743684E-04 -4.53640114E-04
 -8.42880167E-04 -3.31795376E-08 -8.57244431E-06  2.78274145E-05 -2.58950961E-06
 -6.56526347E-04  6.19828494E-04 -2.21212594E-06 -5.71236441E-04  4.72158401E-04
 -4.66048337E-05  3.72300124E-07  9.54044795E-05  4.61351884E-05 -3.64020854E-07
 -1.72913810E-04  1.72106522E-06  4.36802706E-04  1.76369389E-04 -1.36982938E-06
  3.19000730E-06 -1.16653624E-05  8.36352015E-05 -2.11726831E-04  1.33495814E-03
  1.13415920E-05  8.40975532E-06 -4.69235317E-06 -7.58946857E-05  5.63089785E-05
 -8.15073216E-05 -1.50059513E-04  4.58204356E-06  1.32639541E-04  1.47306144E-07
  4.74940393E-05  5.52892861E-06 -1.37966816E-05  3.26887056E-05 -1.46019788E-04
  1.13105784E-04 -4.36689192E-05 -3.19127132E-05 -1.70976950E-04 -1.00952129E-05
  4.40549530E-04  9.56178051E-05 -9.61986598E-05  6.41667281E-05  4.13019793E-05
 -4.38359065E-04  1.07375065E-04  1.12483549E-04  3.18845498E-06 -1.16594294E-05
  8.35655576E-05 -2.11539929E-04  1.33553323E-03 -1.12820013E-05  8.50446087E-06
 -4.68428545E-06  7.67496824E-05  5.56999576E-05 -8.12270008E-05  1.50631865E-04
  3.29267481E-06  1.32918062E-04  1.78159188E-07 -4.73975036E-05  5.94338466E-06
 -1.43566615E-05 -3.24485986E-05 -1.45930696E-04 -1.13351560E-04 -4.28648454E-05
 -2.89226425E-05  1.71404999E-04 -1.01274908E-05  4.39807942E-04  9.52470364E-05
  9.66699428E-05  6.33416672E-05  4.12302558E-05  4.38982851E-04  1.03683530E-04
  1.12090591E-04  1.06354011E-06 -1.65679492E-06  3.26021841E-05 -1.16321424E-04
 -6.85387258E-04  7.81173869E-03 -5.91683750E-04  2.33798886E-05 -1.46714467E-05
 -1.40716113E-05 -6.71769706E-04  2.54908153E-04  2.99308552E-04  5.65242721E-03
 -1.81368191E-03 -2.22212216E-03  5.29830457E-03 -2.18675692E-03 -2.83278695E-03
  9.06835654E-04 -1.31119415E-04 -6.07478712E-05 -7.65685872E-05 -1.75622541E-03
  2.43231788E-04  5.32555415E-04 -1.12162691E-03  8.32380887E-06 -5.65473022E-04
 -1.09776058E-04 -4.25893337E-04 -6.82859842E-04 -6.50434706E-06 -2.24642817E-05
  5.09559354E-05  1.15163834E-04  1.16993500E-03  2.42973241E-05 -5.10670903E-05
 -3.34384612E-05 -5.76330966E-04 -2.24086876E-04  4.00933289E-04 -6.26472218E-04
 -2.32138717E-04  7.38098568E-04 -1.36938583E-05  3.08562192E-05 -2.69772935E-06
 -3.68550286E-05  3.35510423E-05 -5.41711543E-05  1.92318774E-04 -4.16138962E-04
 -6.95894597E-05  5.36653918E-04 -5.78984681E-06 -3.49670367E-05  1.55553720E-04
 -4.43809593E-04 -3.72701199E-04  2.33828373E-05  3.13471408E-07 -4.85806157E-05
 -8.92958705E-04  1.49452674E-04  6.84237005E-04 -9.75221863E-04  3.92469102E-04
  6.79787910E-04 -7.77923803E-06  8.49812875E-05 -2.05019411E-05 -3.14237712E-05
 -1.71743584E-05 -4.96695416E-04  5.66645810E-04  5.30498082E-05 -1.65690933E-04
 -4.07611792E-04  3.99990708E-01  6.31547713E-01  1.80423228E-02 -1.06325625E-02
 -7.91078465E-03 -4.09024203E-04 -7.00951482E-04  8.80193909E-04  4.10842749E-03
 -1.78526680E-04 -4.20265656E-03  7.93663190E-04 -5.68557081E-04 -1.48193291E-03
 -1.08256539E-05  2.51728920E-04 -4.25935940E-05 -1.21361111E-04  7.31967615E-05
 -5.51991814E-04  1.79585229E-03 -2.02126241E-04 -8.78388950E-04  5.00276083E-04
  5.41683643E-04  2.89084009E-03 -2.37964940E-04 -1.95505753E-04 -1.81412094E-04
  4.72832152E-04 -4.85540647E-04  1.73765098E-03 -4.21211059E-04 -1.26500792E-01
 -1.99744176E-01 -5.64370219E-03  3.30207134E-03  2.47515912E-03 -9.27998055E-05
  2.15801931E-04 -2.72603893E-04  7.13938442E-04  1.94736463E-04  1.54654157E-03
 -9.75580034E-04  1.02996234E-03  1.05433319E-03  5.99946120E-06  1.23043142E-04
  1.69574892E-05  2.83874674E-06  4.04062175E-05  7.47290954E-04  5.58468008E-04
  3.18891984E-04 -2.47922359E-05  2.05106868E-04 -1.38784575E-04 -8.52375183E-04
  2.44571471E-04 -1.17358664E-04  2.90295751E-05 -1.65113351E-04 -2.24446955E-04
 -1.01152923E-03  5.82306713E-05  2.04644972E-06 -3.18819410E-06  6.27276173E-05
 -2.23758862E-04 -1.31994771E-03  1.50303170E-02 -1.14538872E-03 -1.22961175E-05
 -2.80117263E-05 -2.70738670E-05  3.51688972E-04  4.84063591E-04  5.75883758E-04
 -2.95383297E-03 -3.43411855E-03 -4.27272293E-03 -2.77492707E-03 -4.16158192E-03
 -5.44856190E-03 -4.72520125E-04 -2.42286785E-04 -1.16726866E-04 -1.48832410E-04
  9.13928092E-04  4.49887414E-04  1.04760775E-03  5.71831655E-04  1.62272884E-05
  2.92913911E-04 -2.17551971E-04 -8.04552500E-04  3.63229256E-04 -1.25212014E-05
 -4.32343067E-05  9.80155367E-05  2.22108533E-04  2.25713299E-03 -1.31703505E-05
 -9.80303527E-05 -6.43759286E-05  2.97285327E-04 -4.37333782E-04  7.71405169E-04
  3.23346352E-04 -4.53264007E-04  1.42090094E-03 -2.63460545E-05 -1.60412935E-05
 -4.81645871E-06 -7.16112794E-05 -1.66643164E-05 -1.03818399E-04 -1.04146333E-04
 -7.99062119E-04 -1.44540240E-04 -2.77496835E-04 -1.11345918E-05 -6.73095406E-05
  2.99539401E-04 -8.54726455E-04 -7.20066799E-04 -1.21937411E-05  8.33913747E-07
 -9.35075476E-05  4.65762411E-04  2.78492598E-04  1.31714006E-03  5.10935729E-04
  7.44726487E-04  1.30900293E-03 -1.49137583E-05 -4.43291451E-05 -3.86201454E-05
 -6.01687186E-05  9.54021590E-06 -9.55831582E-04 -2.94263247E-04  1.07864626E-04
 -3.11061251E-04  2.15013976E-04  1.26504109E-01  1.99724270E-01  5.78212938E-03
 -3.43574536E-03 -2.52917853E-03 -1.71917257E-04 -2.29680492E-04  2.85472291E-04
  2.01658759E-03  1.19716243E-04 -1.06232500E-03  1.75966682E-03  8.49902867E-04
  2.47627888E-04 -1.86879280E-07  2.66602267E-05 -7.95264655E-06 -8.26470671E-05
  2.00215176E-06  5.25857399E-04  5.82861285E-04  2.53443159E-04 -6.51887576E-04
  1.01414902E-04  2.11199482E-04  9.87148454E-04  1.32456218E-04  6.26244571E-06
 -9.31434699E-05  1.30474218E-04 -7.60630658E-05 -1.84588772E-05 -2.25106985E-04
  3.99991797E-01  6.31541510E-01  1.80855254E-02 -1.06735620E-02 -7.92138672E-03
  4.27672935E-04 -7.08720030E-04  8.84336152E-04 -4.52049350E-03 -3.99191411E-05
 -4.04665963E-03 -1.65926065E-03  3.78384127E-05 -1.06815224E-03 -8.80239101E-06
 -2.21498679E-04 -3.75404851E-05 -1.47769256E-04 -5.86772237E-05 -1.48186294E-04
 -1.80325428E-03 -4.61593021E-06 -1.10091520E-03 -4.49601155E-04  5.65103833E-04
  2.93276780E-03 -1.17794997E-04  1.54934606E-04 -2.02834201E-04  4.61660195E-04
  4.52669118E-04  1.40668892E-03 -4.74860890E-04  2.90663242E-06  7.89597788E-07
  5.04893594E-05 -2.76516997E-04  1.31710616E-04  1.99407276E-02 -2.25266910E-04
 -2.20735503E-07 -5.52216909E-05  3.56461144E-05  2.48308050E-06  6.10489552E-04
 -2.95662473E-04 -2.81855889E-05 -7.09948836E-03  5.52383697E-03 -4.63928538E-05
 -1.15634834E-02  5.03677253E-03  1.62668142E-06  3.81509827E-04 -5.40761535E-04
  9.36236607E-04 -6.62094417E-06 -1.72699422E-03 -4.91128209E-04  3.75040903E-06
 -8.13371653E-04  4.58699500E-06  1.19598139E-03 -2.72131590E-04  2.16414178E-06
 -1.03231856E-04 -1.74471764E-04  9.97943068E-09  7.38656711E-04  7.06478968E-03