dhp                                                                     
SP        RM062X                                                      Gen                 
Number of atoms                            I                7
Info1-9                                    I   N=           9
         113         113           0           0           0         110
           1          18       -5502
Full Title                                 C   N=           1
dhp         
Route                                      C   N=           5
#P M062X/Gen field=X-8 int=(grid=ultrafine) polar=Dipole    
Charge                                     I               -1
Multiplicity                               I                1
Number of electrons                        I               50
Number of alpha electrons                  I               25
Number of beta electrons                   I               25
Number of basis functions                  I              146
Number of independent functions            I              146
Number of point charges in /Mol/           I                0
Number of translation vectors              I                0
Atomic numbers                             I   N=           7
          15           8           8           8           1           8
           1
Nuclear charges                            R   N=           7
  1.50000000E+01  8.00000000E+00  8.00000000E+00  8.00000000E+00  1.00000000E+00
  8.00000000E+00  1.00000000E+00
Current cartesian coordinates              R   N=          21
  9.96731771E-04  2.20234617E-01  2.76478681E-01  1.26116075E-02  3.04296290E+00
  4.88912571E-01 -6.36173205E-03 -1.67265143E+00  2.42796422E+00  2.47230083E+00
 -6.20740897E-01 -1.60766835E+00  2.91270208E+00 -2.25921824E+00 -8.83695398E-01
 -2.47799540E+00 -6.00701404E-01 -1.60688026E+00 -2.93209549E+00 -2.23525441E+00
 -8.82110277E-01
Number of symbols in /Mol/                 I                0
Int Atom Types                             I   N=           7
           0           0           0           0           0           0
           0
Force Field                                I                0
Atom Types                                 C   N=           7
                                                            
                        
MM charges                                 R   N=           7
  0.00000000E+00  0.00000000E+00  0.00000000E+00  0.00000000E+00  0.00000000E+00
  0.00000000E+00  0.00000000E+00
Integer atomic weights                     I   N=           7
          31          16          16          16           1          16
           1
Real atomic weights                        R   N=           7
  3.09737634E+01  1.59949146E+01  1.59949146E+01  1.59949146E+01  1.00782504E+00
  1.59949146E+01  1.00782504E+00
Atom fragment info                         I   N=           7
           0           0           0           0           0           0
           0
Atom residue num                           I   N=           7
           0           0           0           0           0           0
           0
Nuclear spins                              I   N=           7
           1           0           0           0           1           0
           1
Nuclear ZEff                               R   N=           7
 -1.29400000E+01 -5.60000000E+00 -5.60000000E+00 -5.60000000E+00 -1.00000000E+00
 -5.60000000E+00 -1.00000000E+00
Nuclear ZNuc                               R   N=           7
  1.50000000E+01  8.00000000E+00  8.00000000E+00  8.00000000E+00  1.00000000E+00
  8.00000000E+00  1.00000000E+00
Nuclear QMom                               R   N=           7
  0.00000000E+00  0.00000000E+00  0.00000000E+00  0.00000000E+00  0.00000000E+00
  0.00000000E+00  0.00000000E+00
Nuclear GFac                               R   N=           7
  1.13160000E+00  0.00000000E+00  0.00000000E+00  0.00000000E+00  2.79284600E+00
  0.00000000E+00  2.79284600E+00
MicOpt                                     I   N=           7
          -1          -1          -1          -1          -1          -1
          -1
Number of residues                         I                0
Number of secondary structures             I                0
SymInf integers                            I   N=          26
           1           1           1           1           1           0
           0           0           0           0           0           0
           0           0           0           0           0           0
           0           0           0           0           0           0
           0           0
RotTr to input orientation                 R   N=          12
  1.58467082E-02 -9.97199940E-01  7.30832468E-02 -9.97863049E-01 -1.11386609E-02
  6.43837374E-02 -6.33894096E-02 -7.39473418E-02 -9.95245484E-01  2.01115993E+00
  1.94358910E+00  2.74801273E-01
Number of contracted shells                I               64
Number of primitive shells                 I              128
Pure/Cartesian d shells                    I                0
Pure/Cartesian f shells                    I                0
Highest angular momentum                   I                2
Largest degree of contraction              I                6
Shell types                                I   N=          64
           0           0           0           0           0           0
           0           1           1           1           1           1
          -2          -2           0           0           0           0
           0           1           1           1          -2          -2
           0           0           0           0           0           1
           1           1          -2          -2           0           0
           0           0           0           1           1           1
          -2          -2           0           0           0           1
           1           0           0           0           0           0
           1           1           1          -2          -2           0
           0           0           1           1
Number of primitives per shell             I   N=          64
           6           3           1           1           1           1
           1           6           1           1           1           1
           2           2           5           2           1           1
           1           4           1           1           2           2
           5           2           1           1           1           4
           1           1           2           2           5           2
           1           1           1           4           1           1
           2           2           4           1           1           2
           2           5           2           1           1           1
           4           1           1           2           2           4
           1           1           2           2
Shell to atom map                          I   N=          64
           1           1           1           1           1           1
           1           1           1           1           1           1
           1           1           2           2           2           2
           2           2           2           2           2           2
           3           3           3           3           3           3
           3           3           3           3           4           4
           4           4           4           4           4           4
           4           4           5           5           5           5
           5           6           6           6           6           6
           6           6           6           6           6           7
           7           7           7           7
Primitive exponents                        R   N=         128
  7.74924300E+04  1.16057900E+04  2.64596000E+03  7.54980000E+02  2.48750000E+02
  9.11570000E+01  9.11570000E+01  3.62260000E+01  1.52110000E+01  4.71380000E+00
  1.78270000E+00  3.42500000E-01  1.24600000E-01  4.53000000E-02  3.84840000E+02
  9.05520000E+01  2.88060000E+01  1.06880000E+01  4.25210000E+00  1.74050000E+00
  5.97900000E-01  2.29200000E-01  8.38000000E-02  3.06000000E-02  5.97900000E-01
  2.29200000E-01  8.38000000E-02  3.06000000E-02  1.06622850E+04  1.59970970E+03
  3.64725260E+02  1.03651790E+02  3.39058050E+01  1.22874690E+01  4.75680500E+00
  1.00427100E+00  3.00686000E-01  9.00300000E-02  3.48564630E+01  7.84313100E+00
  2.30624900E+00  7.23164000E-01  2.14882000E-01  6.38500000E-02  2.30620000E+00
  7.23200000E-01  2.14900000E-01  6.39000000E-02  1.06622850E+04  1.59970970E+03
  3.64725260E+02  1.03651790E+02  3.39058050E+01  1.22874690E+01  4.75680500E+00
  1.00427100E+00  3.00686000E-01  9.00300000E-02  3.48564630E+01  7.84313100E+00
  2.30624900E+00  7.23164000E-01  2.14882000E-01  6.38500000E-02  2.30620000E+00
  7.23200000E-01  2.14900000E-01  6.39000000E-02  1.06622850E+04  1.59970970E+03
  3.64725260E+02  1.03651790E+02  3.39058050E+01  1.22874690E+01  4.75680500E+00
  1.00427100E+00  3.00686000E-01  9.00300000E-02  3.48564630E+01  7.84313100E+00
  2.30624900E+00  7.23164000E-01  2.14882000E-01  6.38500000E-02  2.30620000E+00
  7.23200000E-01  2.14900000E-01  6.39000000E-02  3.36850140E+01  5.09478800E+00
  1.15878600E+00  3.25840000E-01  1.02741000E-01  3.24000000E-02  1.15880000E+00
  3.25800000E-01  1.02700000E-01  3.24000000E-02  1.06622850E+04  1.59970970E+03
  3.64725260E+02  1.03651790E+02  3.39058050E+01  1.22874690E+01  4.75680500E+00
  1.00427100E+00  3.00686000E-01  9.00300000E-02  3.48564630E+01  7.84313100E+00
  2.30624900E+00  7.23164000E-01  2.14882000E-01  6.38500000E-02  2.30620000E+00
  7.23200000E-01  2.14900000E-01  6.39000000E-02  3.36850140E+01  5.09478800E+00
  1.15878600E+00  3.25840000E-01  1.02741000E-01  3.24000000E-02  1.15880000E+00
  3.25800000E-01  1.02700000E-01  3.24000000E-02
Contraction coefficients                   R   N=         128
  7.86998727E-04  6.10899012E-03  3.13679492E-02  1.24290799E-01  3.80681384E-01
  5.59988094E-01  1.63997236E-01  6.25927902E-01  2.62211378E-01  1.00000000E+00
  1.00000000E+00  1.00000000E+00  1.00000000E+00  1.00000000E+00  3.76499575E-03
  2.90099673E-02  1.22952861E-01  3.06469654E-01  4.41348502E-01  2.95816666E-01
  1.00000000E+00  1.00000000E+00  1.00000000E+00  1.00000000E+00  2.57098289E-01
  8.07536332E-01  6.80799999E-01  4.12315493E-01  1.90604745E-03  1.46782352E-02
  7.43263084E-02  2.75759025E-01  7.19364732E-01  6.69996511E-01  3.66229217E-01
  1.00000000E+00  1.00000000E+00  1.00000000E+00  1.99439284E-02  1.25155543E-01
  3.92261182E-01  6.27670401E-01  1.00000000E+00  1.00000000E+00  2.83613619E-01
  8.10264660E-01  6.73833443E-01  4.58004278E-01  1.90604745E-03  1.46782352E-02
  7.43263084E-02  2.75759025E-01  7.19364732E-01  6.69996511E-01  3.66229217E-01
  1.00000000E+00  1.00000000E+00  1.00000000E+00  1.99439284E-02  1.25155543E-01
  3.92261182E-01  6.27670401E-01  1.00000000E+00  1.00000000E+00  2.83613619E-01
  8.10264660E-01  6.73833443E-01  4.58004278E-01  1.90604745E-03  1.46782352E-02
  7.43263084E-02  2.75759025E-01  7.19364732E-01  6.69996511E-01  3.66229217E-01
  1.00000000E+00  1.00000000E+00  1.00000000E+00  1.99439284E-02  1.25155543E-01
  3.92261182E-01  6.27670401E-01  1.00000000E+00  1.00000000E+00  2.83613619E-01
  8.10264660E-01  6.73833443E-01  4.58004278E-01  8.76040453E-03  6.54229551E-02
  2.92849871E-01  7.27207417E-01  1.00000000E+00  1.00000000E+00  1.86447366E-01
  8.73088966E-01  9.76214574E-01  3.48056130E-02  1.90604745E-03  1.46782352E-02
  7.43263084E-02  2.75759025E-01  7.19364732E-01  6.69996511E-01  3.66229217E-01
  1.00000000E+00  1.00000000E+00  1.00000000E+00  1.99439284E-02  1.25155543E-01
  3.92261182E-01  6.27670401E-01  1.00000000E+00  1.00000000E+00  2.83613619E-01
  8.10264660E-01  6.73833443E-01  4.58004278E-01  8.76040453E-03  6.54229551E-02
  2.92849871E-01  7.27207417E-01  1.00000000E+00  1.00000000E+00  1.86447366E-01
  8.73088966E-01  9.76214574E-01  3.48056130E-02
Coordinates of each shell                  R   N=         192
  9.96731771E-04  2.20234617E-01  2.76478681E-01  9.96731771E-04  2.20234617E-01
  2.76478681E-01  9.96731771E-04  2.20234617E-01  2.76478681E-01  9.96731771E-04
  2.20234617E-01  2.76478681E-01  9.96731771E-04  2.20234617E-01  2.76478681E-01
  9.96731771E-04  2.20234617E-01  2.76478681E-01  9.96731771E-04  2.20234617E-01
  2.76478681E-01  9.96731771E-04  2.20234617E-01  2.76478681E-01  9.96731771E-04
  2.20234617E-01  2.76478681E-01  9.96731771E-04  2.20234617E-01  2.76478681E-01
  9.96731771E-04  2.20234617E-01  2.76478681E-01  9.96731771E-04  2.20234617E-01
  2.76478681E-01  9.96731771E-04  2.20234617E-01  2.76478681E-01  9.96731771E-04
  2.20234617E-01  2.76478681E-01  1.26116075E-02  3.04296290E+00  4.88912571E-01
  1.26116075E-02  3.04296290E+00  4.88912571E-01  1.26116075E-02  3.04296290E+00
  4.88912571E-01  1.26116075E-02  3.04296290E+00  4.88912571E-01  1.26116075E-02
  3.04296290E+00  4.88912571E-01  1.26116075E-02  3.04296290E+00  4.88912571E-01
  1.26116075E-02  3.04296290E+00  4.88912571E-01  1.26116075E-02  3.04296290E+00
  4.88912571E-01  1.26116075E-02  3.04296290E+00  4.88912571E-01  1.26116075E-02
  3.04296290E+00  4.88912571E-01 -6.36173205E-03 -1.67265143E+00  2.42796422E+00
 -6.36173205E-03 -1.67265143E+00  2.42796422E+00 -6.36173205E-03 -1.67265143E+00
  2.42796422E+00 -6.36173205E-03 -1.67265143E+00  2.42796422E+00 -6.36173205E-03
 -1.67265143E+00  2.42796422E+00 -6.36173205E-03 -1.67265143E+00  2.42796422E+00
 -6.36173205E-03 -1.67265143E+00  2.42796422E+00 -6.36173205E-03 -1.67265143E+00
  2.42796422E+00 -6.36173205E-03 -1.67265143E+00  2.42796422E+00 -6.36173205E-03
 -1.67265143E+00  2.42796422E+00  2.47230083E+00 -6.20740897E-01 -1.60766835E+00
  2.47230083E+00 -6.20740897E-01 -1.60766835E+00  2.47230083E+00 -6.20740897E-01
 -1.60766835E+00  2.47230083E+00 -6.20740897E-01 -1.60766835E+00  2.47230083E+00
 -6.20740897E-01 -1.60766835E+00  2.47230083E+00 -6.20740897E-01 -1.60766835E+00
  2.47230083E+00 -6.20740897E-01 -1.60766835E+00  2.47230083E+00 -6.20740897E-01
 -1.60766835E+00  2.47230083E+00 -6.20740897E-01 -1.60766835E+00  2.47230083E+00
 -6.20740897E-01 -1.60766835E+00  2.91270208E+00 -2.25921824E+00 -8.83695398E-01
  2.91270208E+00 -2.25921824E+00 -8.83695398E-01  2.91270208E+00 -2.25921824E+00
 -8.83695398E-01  2.91270208E+00 -2.25921824E+00 -8.83695398E-01  2.91270208E+00
 -2.25921824E+00 -8.83695398E-01 -2.47799540E+00 -6.00701404E-01 -1.60688026E+00
 -2.47799540E+00 -6.00701404E-01 -1.60688026E+00 -2.47799540E+00 -6.00701404E-01
 -1.60688026E+00 -2.47799540E+00 -6.00701404E-01 -1.60688026E+00 -2.47799540E+00
 -6.00701404E-01 -1.60688026E+00 -2.47799540E+00 -6.00701404E-01 -1.60688026E+00
 -2.47799540E+00 -6.00701404E-01 -1.60688026E+00 -2.47799540E+00 -6.00701404E-01
 -1.60688026E+00 -2.47799540E+00 -6.00701404E-01 -1.60688026E+00 -2.47799540E+00
 -6.00701404E-01 -1.60688026E+00 -2.93209549E+00 -2.23525441E+00 -8.82110277E-01
 -2.93209549E+00 -2.23525441E+00 -8.82110277E-01 -2.93209549E+00 -2.23525441E+00
 -8.82110277E-01 -2.93209549E+00 -2.23525441E+00 -8.82110277E-01 -2.93209549E+00
 -2.23525441E+00 -8.82110277E-01
Num ILSW                                   I              100
ILSW                                       I   N=         100
           0           0           0           0           2           0
           0           0           0           0        4336          -1
           5           0           0           0           0           0
           0           0           0           0           0           0
           1           0           0           0           0           0
           0           0      100000           0          -1           0
           0           0           0           0           0           0
           0           0           0           1           0           0
           0 -2000000000           1           0           0           0
           0           0           4          52           0           0
           0           0          55           0           0           0
           0           0           0           7           0           1
           0           0           0           0           0           0
           0           0           0           0           0           0
           0           0           0           0           0           0
           0           0           0           0           0           0
           0           0           0           0
Num RLSW                                   I               52
RLSW                                       R   N=          52
  1.00000000E+00  1.00000000E+00  1.00000000E+00  1.00000000E+00  5.40000000E-01
  0.00000000E+00  0.00000000E+00  1.00000000E+00  0.00000000E+00  0.00000000E+00
  0.00000000E+00  0.00000000E+00  1.00000000E+00  0.00000000E+00  0.00000000E+00
  0.00000000E+00  0.00000000E+00  1.00000000E+00  0.00000000E+00  0.00000000E+00
  0.00000000E+00  0.00000000E+00  1.00000000E+00  0.00000000E+00  0.00000000E+00
  0.00000000E+00  0.00000000E+00  1.00000000E+00  0.00000000E+00  0.00000000E+00
  0.00000000E+00  0.00000000E+00  1.00000000E+00  0.00000000E+00  0.00000000E+00
  0.00000000E+00  0.00000000E+00  0.00000000E+00  1.00000000E+00  1.00000000E+00
  0.00000000E+00  1.00000000E+00  0.00000000E+00  0.00000000E+00  0.00000000E+00
  0.00000000E+00  0.00000000E+00  0.00000000E+00  0.00000000E+00  0.00000000E+00
  0.00000000E+00  0.00000000E+00
MxBond                                     I                4
NBond                                      I   N=           7
           4           1           1           2           1           2
           1
IBond                                      I   N=          28
           2           3           4           6           1           0
           0           0           1           0           0           0
           1           5           0           0           4           0
           0           0           1           7           0           0
           6           0           0           0
RBond                                      R   N=          28
  2.00000000E+00  2.00000000E+00  1.00000000E+00  1.00000000E+00  2.00000000E+00
  0.00000000E+00  0.00000000E+00  0.00000000E+00  2.00000000E+00  0.00000000E+00
  0.00000000E+00  0.00000000E+00  1.00000000E+00  1.00000000E+00  0.00000000E+00
  0.00000000E+00  1.00000000E+00  0.00000000E+00  0.00000000E+00  0.00000000E+00
  1.00000000E+00  1.00000000E+00  0.00000000E+00  0.00000000E+00  1.00000000E+00
  0.00000000E+00  0.00000000E+00  0.00000000E+00
Virial Ratio                               R      2.004229750277373E+00
SCF Energy                                 R     -6.436077810675954E+02
Total Energy                               R     -6.436077810675954E+02
RMS Density                                R      9.289055069153506E-09
Job Status                                 I                1
Nuclear derivative order                   I                0
External E-field                           R   N=          35
  0.00000000E+00 -8.00000000E-04  0.00000000E+00  0.00000000E+00  0.00000000E+00
  0.00000000E+00  0.00000000E+00  0.00000000E+00  0.00000000E+00  0.00000000E+00
  0.00000000E+00  0.00000000E+00  0.00000000E+00  0.00000000E+00  0.00000000E+00
  0.00000000E+00  0.00000000E+00  0.00000000E+00  0.00000000E+00  0.00000000E+00
  0.00000000E+00  0.00000000E+00  0.00000000E+00  0.00000000E+00  0.00000000E+00
  0.00000000E+00  0.00000000E+00  0.00000000E+00  0.00000000E+00  0.00000000E+00
  0.00000000E+00  0.00000000E+00  0.00000000E+00  0.00000000E+00  0.00000000E+00
IOpCl                                      I                0
IROHF                                      I                0
Alpha Orbital Energies                     R   N=         146
 -7.80121765E+01 -1.94745120E+01 -1.94724220E+01 -1.94078605E+01 -1.93986386E+01
 -6.78295208E+00 -4.90165818E+00 -4.90099836E+00 -4.89903869E+00 -9.98133387E-01
 -9.47167846E-01 -8.92473037E-01 -8.67114037E-01 -4.80841384E-01 -4.03380393E-01
 -3.73841458E-01 -3.31190926E-01 -3.22193398E-01 -2.65452696E-01 -2.55350305E-01
 -2.27542172E-01 -2.01297917E-01 -1.80518709E-01 -1.73679316E-01 -1.63001269E-01
  1.09575619E-01  1.29473091E-01  1.51841372E-01  1.55907309E-01  1.68956048E-01
  1.83437813E-01  1.92265762E-01  1.99406063E-01  2.21522208E-01  2.49113615E-01
  2.70988537E-01  2.98699685E-01  3.15757770E-01  3.20538291E-01  3.22620402E-01
  3.31256451E-01  3.34830847E-01  3.42909237E-01  3.49912245E-01  3.54681171E-01
  3.64497094E-01  3.67012557E-01  3.83679639E-01  3.85073498E-01  3.93106915E-01
  3.95127019E-01  4.03488750E-01  4.28434324E-01  4.35819434E-01  4.55076137E-01
  4.66790021E-01  4.97137933E-01  5.20068684E-01  5.30331505E-01  5.52673125E-01
  5.62340428E-01  5.69610055E-01  5.72272784E-01  6.06361428E-01  6.06834286E-01
  6.37668029E-01  6.48213049E-01  7.20176067E-01  7.25957125E-01  7.60161151E-01
  7.70159020E-01  7.74147577E-01  8.16144631E-01  8.26582211E-01  8.34445416E-01
  8.40605168E-01  8.67531059E-01  8.80456393E-01  9.09249213E-01  9.10959026E-01
  9.16387608E-01  9.42339627E-01  9.69886863E-01  9.88194838E-01  1.00518832E+00
  1.02162415E+00  1.03483071E+00  1.03723214E+00  1.03952399E+00  1.10598297E+00
  1.10808009E+00  1.15150996E+00  1.16630378E+00  1.20868176E+00  1.21260912E+00
  1.26282314E+00  1.28020487E+00  1.30307282E+00  1.30399127E+00  1.34340336E+00
  1.34927793E+00  1.37279341E+00  1.47142014E+00  1.53316232E+00  1.59615447E+00
  1.61225828E+00  1.61612980E+00  1.63230048E+00  1.68795188E+00  1.73379468E+00
  1.77828034E+00  1.81697262E+00  1.88326680E+00  1.92414712E+00  2.00099439E+00
  2.01875427E+00  2.29669231E+00  2.30419175E+00  2.42700185E+00  2.48136813E+00
  2.62188566E+00  2.62194778E+00  2.64265328E+00  2.69777447E+00  2.70031582E+00
  2.73145158E+00  2.73630763E+00  2.74612460E+00  2.77540655E+00  2.78174522E+00
  2.78823514E+00  2.88114200E+00  2.89724484E+00  2.92169857E+00  2.99684052E+00
  3.15742618E+00  3.21397707E+00  3.33886686E+00  3.45241509E+00  3.47378423E+00
  7.39522095E+00  4.29146365E+01  4.29478408E+01  4.31386547E+01  4.32098364E+01
  1.64486888E+02
Alpha MO coefficients                      R   N=       21316
  4.16400414E-01  6.48366536E-01  1.43335357E-02 -4.71443260E-03  3.00109185E-03
  7.96313145E-04 -1.75377997E-03 -4.82948984E-07 -2.25423465E-05 -3.05693883E-05
  4.25427858E-07  4.32212894E-05 -3.19054741E-05  1.16946855E-07  2.47832886E-05
  7.13646652E-04  5.15476169E-06  1.20127395E-03  1.48192623E-03 -7.71710662E-08
  2.22951342E-05 -1.69189315E-04 -1.14341067E-04 -5.93870499E-07 -1.47553581E-04
 -3.37345349E-04  2.71219740E-06  1.35005255E-04  6.27920102E-07  1.40651401E-04
  3.72548358E-04 -2.89154371E-06  4.47672659E-06 -1.65564239E-05  1.75610752E-04
 -5.30129432E-04 -1.10073628E-03  1.50587272E-07  3.46862151E-05  1.98643360E-05
  3.49422685E-06  8.57915607E-04 -8.39214668E-05  2.93603309E-06  7.46204737E-04
 -1.03884179E-04  5.65816060E-05 -6.36040682E-08 -1.52446273E-05  1.03616551E-04
 -8.54099790E-07  2.50036366E-04  5.50005419E-08  9.12747084E-06  4.12122391E-04
 -3.36187007E-06  4.25325157E-06 -1.57293904E-05  1.62732977E-04 -4.53518831E-04
 -8.42623276E-04 -3.34358857E-08 -8.57517978E-06  2.78279588E-05 -2.55415873E-06
 -6.56382201E-04  6.19701710E-04 -2.22152028E-06 -5.71151020E-04  4.72037421E-04
 -4.66105854E-05  3.69223290E-07  9.54191597E-05  4.61405979E-05 -3.64171465E-07
 -1.72901145E-04  1.69511015E-06  4.36728288E-04  1.76330539E-04 -1.34724786E-06
  3.18989497E-06 -1.16651295E-05  8.36316388E-05 -2.11708725E-04  1.33507858E-03
  1.13398707E-05  8.41131516E-06 -4.69381845E-06 -7.58718474E-05  5.62853757E-05
 -8.14399644E-05 -1.50116677E-04  4.57184326E-06  1.32688666E-04  1.53054268E-07
  4.74910592E-05  5.52994766E-06 -1.38018002E-05  3.26871936E-05 -1.45980849E-04
  1.13091031E-04 -4.36799649E-05 -3.19308999E-05 -1.70966020E-04 -1.01119305E-05
  4.40316304E-04  9.55365891E-05 -9.62031443E-05  6.41620229E-05  4.13004512E-05
 -4.38285055E-04  1.07325001E-04  1.12425467E-04  3.18974880E-06 -1.16634120E-05
  8.35965365E-05 -2.11691034E-04  1.33536298E-03 -1.12810858E-05  8.50575632E-06
 -4.68458808E-06  7.65521935E-05  5.56186994E-05 -8.13566523E-05  1.50485094E-04
  3.29132390E-06  1.32807534E-04  1.79599036E-07 -4.73887411E-05  5.94360640E-06
 -1.43522226E-05 -3.24481028E-05 -1.45922040E-04 -1.13456020E-04 -4.29000993E-05
 -2.89906388E-05  1.71349882E-04 -1.01305133E-05  4.39768908E-04  9.53399872E-05
  9.66730592E-05  6.33473960E-05  4.12328391E-05  4.38958004E-04  1.03653546E-04
  1.12089835E-04  1.62301141E-06 -2.57103215E-06  5.00644634E-05 -1.78139519E-04
 -1.04819088E-03  1.19330698E-02 -9.24146898E-04 -1.88488563E-05 -2.22450147E-05
 -2.15651943E-05  5.38799504E-04  3.83876699E-04  4.58354789E-04 -4.52111866E-03
 -2.72064652E-03 -3.39602478E-03 -4.24210731E-03 -3.29758473E-03 -4.32918433E-03
 -7.25971149E-04 -1.89537055E-04 -9.34933046E-05 -1.18092984E-04  1.40172022E-03
  3.54928478E-04  8.36863511E-04  8.83558296E-04  1.43684169E-05  4.52251340E-04
 -1.73654398E-04 -6.35900648E-04  5.52307772E-04 -9.65534321E-06 -3.38661377E-05
  7.76589390E-05  1.78427650E-04  1.79563737E-03 -1.99809773E-05 -7.80198797E-05
 -5.12615147E-05  4.57900458E-04 -3.49291394E-04  6.13459724E-04  4.98224718E-04
 -3.60195777E-04  1.13029821E-03 -2.09810697E-05 -2.45726739E-05 -3.71721687E-06
 -5.70876590E-05 -2.60105312E-05 -8.23118422E-05 -1.58212519E-04 -6.35499577E-04
 -1.16617458E-04 -4.27112763E-04 -8.40368249E-06 -5.27831826E-05  2.37938327E-04
 -6.77594552E-04 -5.71576536E-04 -1.87416248E-05  7.71498527E-07 -7.44975137E-05
  7.13840891E-04  2.20263345E-04  1.04659332E-03  7.81382795E-04  5.88574854E-04
  1.04133175E-03 -1.17963771E-05 -6.79245886E-05 -3.06524382E-05 -4.77806656E-05
  1.42923491E-05 -7.60064422E-04 -4.52361954E-04  8.73372569E-05 -2.46206666E-04
  3.27723679E-04 -5.65208189E-04 -9.05543753E-04  4.65472951E-05 -5.27322659E-05
 -1.75363129E-05 -4.02228446E-05 -6.62955246E-06  5.51270505E-06  6.78289877E-04
  1.67894729E-04  2.60568564E-04  1.43839448E-03  9.81610227E-04  6.84364840E-04
  3.04167855E-06 -5.07850334E-05  5.32346030E-06 -4.18922399E-05 -2.02976970E-05
  6.68374776E-04  1.16914711E-05  3.02064687E-04 -3.56624314E-04 -5.50676228E-05
  3.67537808E-05  6.62923849E-05  1.99074080E-04  6.46505381E-05 -3.39034631E-05
 -1.87095853E-05  7.44275702E-05 -5.42878548E-04 -8.73454198E-05  4.19518125E-01
  6.62375394E-01  1.89465032E-02 -1.11746250E-02 -8.26765181E-03  4.29928072E-04
 -7.40934177E-04  9.19788045E-04 -4.51342461E-03 -9.52466523E-05 -4.31586490E-03
 -1.27452654E-03 -2.74127489E-04 -1.32916706E-03 -1.01731229E-05 -2.48404121E-04
 -4.08421267E-05 -1.41764323E-04 -6.81250388E-05 -3.66597024E-04 -1.88197749E-03
 -1.00335780E-04 -1.03804927E-03 -4.90462206E-04  5.81286854E-04  3.05094822E-03
 -1.82331337E-04  1.82361153E-04 -2.01892207E-04  4.89192223E-04  4.97845274E-04
  1.64618191E-03 -4.71193681E-04  1.63432465E-06 -2.53660171E-06  5.00269683E-05
 -1.78571510E-04 -1.05329900E-03  1.19991021E-02 -9.11451351E-04  1.85600280E-05
 -2.24534587E-05 -2.16032670E-05 -5.33664500E-04  3.89414945E-04  4.59755253E-04
  4.49354431E-03 -2.76780011E-03 -3.41280483E-03  4.20479357E-03 -3.35073620E-03
 -4.35346530E-03  7.18851854E-04 -1.97857135E-04 -9.36632417E-05 -1.18003235E-04
 -1.39733814E-03  3.68148212E-04  8.24483352E-04 -8.95859444E-04  1.34230940E-05
 -4.48991587E-04 -1.70488362E-04 -6.49405669E-04 -5.38942177E-04 -1.00382677E-05
 -3.45852784E-05  7.83101995E-05  1.76712269E-04  1.80261105E-03  1.91301539E-05
 -7.83084058E-05 -5.14104122E-05 -4.58983267E-04 -3.45749485E-04  6.16262442E-04
 -4.99230338E-04 -3.58970316E-04  1.13455439E-03 -2.10295008E-05  2.45608281E-05
 -4.00876816E-06 -5.68015780E-05  2.69441408E-05 -8.29841385E-05  1.51690810E-04
 -6.39212777E-04 -1.09721126E-04  4.27270009E-04 -8.83212298E-06 -5.36293560E-05
  2.39022986E-04 -6.81986333E-04 -5.73650467E-04  1.85742102E-05  5.01960025E-07
 -7.46635217E-05 -7.09612606E-04  2.27365582E-04  1.05125024E-03 -7.73953061E-04
  6.00207076E-04  1.04506972E-03 -1.18936297E-05  6.75548434E-05 -3.12291934E-05
 -4.81695665E-05 -1.34907934E-05 -7.63390101E-04  4.50847282E-04  8.29575829E-05
 -2.52299411E-04 -3.23158512E-04  4.19518290E-01  6.62375547E-01  1.89462914E-02
 -1.11747008E-02 -8.30274559E-03 -4.45492450E-04 -7.37542736E-04  9.22491763E-04
  4.52995004E-03 -1.33702268E-04 -4.32571222E-03  1.29199601E-03 -2.84826436E-04
 -1.33678756E-03 -1.04263304E-05  2.47922825E-04 -4.28325526E-05 -1.40473877E-04
  7.05576649E-05 -3.65914394E-04  1.88880958E-03 -1.16139323E-04 -1.03585917E-03
  5.06983534E-04  5.80828081E-04  3.05017777E-03 -1.85609592E-04 -1.84881855E-04
 -2.00140487E-04  4.89760200E-04 -4.86363342E-04  1.64853176E-03 -4.69481421E-04
  5.68696419E-04  8.84710926E-04  9.82909468E-05 -8.61099103E-05 -3.65743196E-05
  4.09064173E-05 -8.95128556E-06  7.97719522E-06 -6.88301119E-04  1.73122176E-04
  2.48770816E-04 -1.43058602E-03  9.92666150E-04  6.82232919E-04  3.11058017E-06
  5.02046089E-05  4.76240913E-06 -4.21707138E-05  2.07491858E-05  6.67110142E-04
 -1.33573721E-05  3.02874305E-04 -3.56189974E-04  5.90632901E-05  3.90567965E-05
  6.99391680E-05  1.95928557E-04 -6.53060982E-05 -3.38897030E-05 -1.75066964E-05
 -7.82997809E-05 -5.39900640E-04 -8.83776121E-05  2.91009975E-06  8.20074704E-07
  5.03243366E-05 -2.76291512E-04  1.31213162E-04  1.99533912E-02 -2.20332449E-04
 -2.01387721E-07 -5.52479329E-05  3.56676343E-05  2.51947797E-06  6.10551209E-04
 -2.95339893E-04 -2.89232749E-05 -7.10182350E-03  5.52345177E-03 -5.58304456E-05
 -1.15753416E-02  5.03771015E-03 -1.91429942E-06  3.81887192E-04 -5.42292830E-04
  9.35848161E-04 -6.79854831E-06 -1.72603312E-03 -4.90708905E-04  4.07960923E-06
 -8.14767303E-04  5.34426793E-06  1.19775193E-03 -2.72107993E-04  5.99302912E-06
 -1.10041183E-04 -1.85234160E-04 -2.42834227E-07  7.38760208E-04  7.07160089E-03