dhp                                                                     
SP        RM062X                                                      Gen                 
Number of atoms                            I                7
Info1-9                                    I   N=           9
         113         113           0           0           0         110
           1          18       -5502
Full Title                                 C   N=           1
dhp         
Route                                      C   N=           5
#P M062X/Gen field=X+8 int=(grid=ultrafine) polar=Dipole    
Charge                                     I               -1
Multiplicity                               I                1
Number of electrons                        I               50
Number of alpha electrons                  I               25
Number of beta electrons                   I               25
Number of basis functions                  I              146
Number of independent functions            I              146
Number of point charges in /Mol/           I                0
Number of translation vectors              I                0
Atomic numbers                             I   N=           7
          15           8           8           8           1           8
           1
Nuclear charges                            R   N=           7
  1.50000000E+01  8.00000000E+00  8.00000000E+00  8.00000000E+00  1.00000000E+00
  8.00000000E+00  1.00000000E+00
Current cartesian coordinates              R   N=          21
  9.96731771E-04  2.20234617E-01  2.76478681E-01  1.26116075E-02  3.04296290E+00
  4.88912571E-01 -6.36173205E-03 -1.67265143E+00  2.42796422E+00  2.47230083E+00
 -6.20740897E-01 -1.60766835E+00  2.91270208E+00 -2.25921824E+00 -8.83695398E-01
 -2.47799540E+00 -6.00701404E-01 -1.60688026E+00 -2.93209549E+00 -2.23525441E+00
 -8.82110277E-01
Number of symbols in /Mol/                 I                0
Int Atom Types                             I   N=           7
           0           0           0           0           0           0
           0
Force Field                                I                0
Atom Types                                 C   N=           7
                                                            
                        
MM charges                                 R   N=           7
  0.00000000E+00  0.00000000E+00  0.00000000E+00  0.00000000E+00  0.00000000E+00
  0.00000000E+00  0.00000000E+00
Integer atomic weights                     I   N=           7
          31          16          16          16           1          16
           1
Real atomic weights                        R   N=           7
  3.09737634E+01  1.59949146E+01  1.59949146E+01  1.59949146E+01  1.00782504E+00
  1.59949146E+01  1.00782504E+00
Atom fragment info                         I   N=           7
           0           0           0           0           0           0
           0
Atom residue num                           I   N=           7
           0           0           0           0           0           0
           0
Nuclear spins                              I   N=           7
           1           0           0           0           1           0
           1
Nuclear ZEff                               R   N=           7
 -1.29400000E+01 -5.60000000E+00 -5.60000000E+00 -5.60000000E+00 -1.00000000E+00
 -5.60000000E+00 -1.00000000E+00
Nuclear ZNuc                               R   N=           7
  1.50000000E+01  8.00000000E+00  8.00000000E+00  8.00000000E+00  1.00000000E+00
  8.00000000E+00  1.00000000E+00
Nuclear QMom                               R   N=           7
  0.00000000E+00  0.00000000E+00  0.00000000E+00  0.00000000E+00  0.00000000E+00
  0.00000000E+00  0.00000000E+00
Nuclear GFac                               R   N=           7
  1.13160000E+00  0.00000000E+00  0.00000000E+00  0.00000000E+00  2.79284600E+00
  0.00000000E+00  2.79284600E+00
MicOpt                                     I   N=           7
          -1          -1          -1          -1          -1          -1
          -1
Number of residues                         I                0
Number of secondary structures             I                0
SymInf integers                            I   N=          26
           1           1           1           1           1           0
           0           0           0           0           0           0
           0           0           0           0           0           0
           0           0           0           0           0           0
           0           0
RotTr to input orientation                 R   N=          12
  1.58467082E-02 -9.97199940E-01  7.30832468E-02 -9.97863049E-01 -1.11386609E-02
  6.43837374E-02 -6.33894096E-02 -7.39473418E-02 -9.95245484E-01  2.01115993E+00
  1.94358910E+00  2.74801273E-01
Number of contracted shells                I               64
Number of primitive shells                 I              128
Pure/Cartesian d shells                    I                0
Pure/Cartesian f shells                    I                0
Highest angular momentum                   I                2
Largest degree of contraction              I                6
Shell types                                I   N=          64
           0           0           0           0           0           0
           0           1           1           1           1           1
          -2          -2           0           0           0           0
           0           1           1           1          -2          -2
           0           0           0           0           0           1
           1           1          -2          -2           0           0
           0           0           0           1           1           1
          -2          -2           0           0           0           1
           1           0           0           0           0           0
           1           1           1          -2          -2           0
           0           0           1           1
Number of primitives per shell             I   N=          64
           6           3           1           1           1           1
           1           6           1           1           1           1
           2           2           5           2           1           1
           1           4           1           1           2           2
           5           2           1           1           1           4
           1           1           2           2           5           2
           1           1           1           4           1           1
           2           2           4           1           1           2
           2           5           2           1           1           1
           4           1           1           2           2           4
           1           1           2           2
Shell to atom map                          I   N=          64
           1           1           1           1           1           1
           1           1           1           1           1           1
           1           1           2           2           2           2
           2           2           2           2           2           2
           3           3           3           3           3           3
           3           3           3           3           4           4
           4           4           4           4           4           4
           4           4           5           5           5           5
           5           6           6           6           6           6
           6           6           6           6           6           7
           7           7           7           7
Primitive exponents                        R   N=         128
  7.74924300E+04  1.16057900E+04  2.64596000E+03  7.54980000E+02  2.48750000E+02
  9.11570000E+01  9.11570000E+01  3.62260000E+01  1.52110000E+01  4.71380000E+00
  1.78270000E+00  3.42500000E-01  1.24600000E-01  4.53000000E-02  3.84840000E+02
  9.05520000E+01  2.88060000E+01  1.06880000E+01  4.25210000E+00  1.74050000E+00
  5.97900000E-01  2.29200000E-01  8.38000000E-02  3.06000000E-02  5.97900000E-01
  2.29200000E-01  8.38000000E-02  3.06000000E-02  1.06622850E+04  1.59970970E+03
  3.64725260E+02  1.03651790E+02  3.39058050E+01  1.22874690E+01  4.75680500E+00
  1.00427100E+00  3.00686000E-01  9.00300000E-02  3.48564630E+01  7.84313100E+00
  2.30624900E+00  7.23164000E-01  2.14882000E-01  6.38500000E-02  2.30620000E+00
  7.23200000E-01  2.14900000E-01  6.39000000E-02  1.06622850E+04  1.59970970E+03
  3.64725260E+02  1.03651790E+02  3.39058050E+01  1.22874690E+01  4.75680500E+00
  1.00427100E+00  3.00686000E-01  9.00300000E-02  3.48564630E+01  7.84313100E+00
  2.30624900E+00  7.23164000E-01  2.14882000E-01  6.38500000E-02  2.30620000E+00
  7.23200000E-01  2.14900000E-01  6.39000000E-02  1.06622850E+04  1.59970970E+03
  3.64725260E+02  1.03651790E+02  3.39058050E+01  1.22874690E+01  4.75680500E+00
  1.00427100E+00  3.00686000E-01  9.00300000E-02  3.48564630E+01  7.84313100E+00
  2.30624900E+00  7.23164000E-01  2.14882000E-01  6.38500000E-02  2.30620000E+00
  7.23200000E-01  2.14900000E-01  6.39000000E-02  3.36850140E+01  5.09478800E+00
  1.15878600E+00  3.25840000E-01  1.02741000E-01  3.24000000E-02  1.15880000E+00
  3.25800000E-01  1.02700000E-01  3.24000000E-02  1.06622850E+04  1.59970970E+03
  3.64725260E+02  1.03651790E+02  3.39058050E+01  1.22874690E+01  4.75680500E+00
  1.00427100E+00  3.00686000E-01  9.00300000E-02  3.48564630E+01  7.84313100E+00
  2.30624900E+00  7.23164000E-01  2.14882000E-01  6.38500000E-02  2.30620000E+00
  7.23200000E-01  2.14900000E-01  6.39000000E-02  3.36850140E+01  5.09478800E+00
  1.15878600E+00  3.25840000E-01  1.02741000E-01  3.24000000E-02  1.15880000E+00
  3.25800000E-01  1.02700000E-01  3.24000000E-02
Contraction coefficients                   R   N=         128
  7.86998727E-04  6.10899012E-03  3.13679492E-02  1.24290799E-01  3.80681384E-01
  5.59988094E-01  1.63997236E-01  6.25927902E-01  2.62211378E-01  1.00000000E+00
  1.00000000E+00  1.00000000E+00  1.00000000E+00  1.00000000E+00  3.76499575E-03
  2.90099673E-02  1.22952861E-01  3.06469654E-01  4.41348502E-01  2.95816666E-01
  1.00000000E+00  1.00000000E+00  1.00000000E+00  1.00000000E+00  2.57098289E-01
  8.07536332E-01  6.80799999E-01  4.12315493E-01  1.90604745E-03  1.46782352E-02
  7.43263084E-02  2.75759025E-01  7.19364732E-01  6.69996511E-01  3.66229217E-01
  1.00000000E+00  1.00000000E+00  1.00000000E+00  1.99439284E-02  1.25155543E-01
  3.92261182E-01  6.27670401E-01  1.00000000E+00  1.00000000E+00  2.83613619E-01
  8.10264660E-01  6.73833443E-01  4.58004278E-01  1.90604745E-03  1.46782352E-02
  7.43263084E-02  2.75759025E-01  7.19364732E-01  6.69996511E-01  3.66229217E-01
  1.00000000E+00  1.00000000E+00  1.00000000E+00  1.99439284E-02  1.25155543E-01
  3.92261182E-01  6.27670401E-01  1.00000000E+00  1.00000000E+00  2.83613619E-01
  8.10264660E-01  6.73833443E-01  4.58004278E-01  1.90604745E-03  1.46782352E-02
  7.43263084E-02  2.75759025E-01  7.19364732E-01  6.69996511E-01  3.66229217E-01
  1.00000000E+00  1.00000000E+00  1.00000000E+00  1.99439284E-02  1.25155543E-01
  3.92261182E-01  6.27670401E-01  1.00000000E+00  1.00000000E+00  2.83613619E-01
  8.10264660E-01  6.73833443E-01  4.58004278E-01  8.76040453E-03  6.54229551E-02
  2.92849871E-01  7.27207417E-01  1.00000000E+00  1.00000000E+00  1.86447366E-01
  8.73088966E-01  9.76214574E-01  3.48056130E-02  1.90604745E-03  1.46782352E-02
  7.43263084E-02  2.75759025E-01  7.19364732E-01  6.69996511E-01  3.66229217E-01
  1.00000000E+00  1.00000000E+00  1.00000000E+00  1.99439284E-02  1.25155543E-01
  3.92261182E-01  6.27670401E-01  1.00000000E+00  1.00000000E+00  2.83613619E-01
  8.10264660E-01  6.73833443E-01  4.58004278E-01  8.76040453E-03  6.54229551E-02
  2.92849871E-01  7.27207417E-01  1.00000000E+00  1.00000000E+00  1.86447366E-01
  8.73088966E-01  9.76214574E-01  3.48056130E-02
Coordinates of each shell                  R   N=         192
  9.96731771E-04  2.20234617E-01  2.76478681E-01  9.96731771E-04  2.20234617E-01
  2.76478681E-01  9.96731771E-04  2.20234617E-01  2.76478681E-01  9.96731771E-04
  2.20234617E-01  2.76478681E-01  9.96731771E-04  2.20234617E-01  2.76478681E-01
  9.96731771E-04  2.20234617E-01  2.76478681E-01  9.96731771E-04  2.20234617E-01
  2.76478681E-01  9.96731771E-04  2.20234617E-01  2.76478681E-01  9.96731771E-04
  2.20234617E-01  2.76478681E-01  9.96731771E-04  2.20234617E-01  2.76478681E-01
  9.96731771E-04  2.20234617E-01  2.76478681E-01  9.96731771E-04  2.20234617E-01
  2.76478681E-01  9.96731771E-04  2.20234617E-01  2.76478681E-01  9.96731771E-04
  2.20234617E-01  2.76478681E-01  1.26116075E-02  3.04296290E+00  4.88912571E-01
  1.26116075E-02  3.04296290E+00  4.88912571E-01  1.26116075E-02  3.04296290E+00
  4.88912571E-01  1.26116075E-02  3.04296290E+00  4.88912571E-01  1.26116075E-02
  3.04296290E+00  4.88912571E-01  1.26116075E-02  3.04296290E+00  4.88912571E-01
  1.26116075E-02  3.04296290E+00  4.88912571E-01  1.26116075E-02  3.04296290E+00
  4.88912571E-01  1.26116075E-02  3.04296290E+00  4.88912571E-01  1.26116075E-02
  3.04296290E+00  4.88912571E-01 -6.36173205E-03 -1.67265143E+00  2.42796422E+00
 -6.36173205E-03 -1.67265143E+00  2.42796422E+00 -6.36173205E-03 -1.67265143E+00
  2.42796422E+00 -6.36173205E-03 -1.67265143E+00  2.42796422E+00 -6.36173205E-03
 -1.67265143E+00  2.42796422E+00 -6.36173205E-03 -1.67265143E+00  2.42796422E+00
 -6.36173205E-03 -1.67265143E+00  2.42796422E+00 -6.36173205E-03 -1.67265143E+00
  2.42796422E+00 -6.36173205E-03 -1.67265143E+00  2.42796422E+00 -6.36173205E-03
 -1.67265143E+00  2.42796422E+00  2.47230083E+00 -6.20740897E-01 -1.60766835E+00
  2.47230083E+00 -6.20740897E-01 -1.60766835E+00  2.47230083E+00 -6.20740897E-01
 -1.60766835E+00  2.47230083E+00 -6.20740897E-01 -1.60766835E+00  2.47230083E+00
 -6.20740897E-01 -1.60766835E+00  2.47230083E+00 -6.20740897E-01 -1.60766835E+00
  2.47230083E+00 -6.20740897E-01 -1.60766835E+00  2.47230083E+00 -6.20740897E-01
 -1.60766835E+00  2.47230083E+00 -6.20740897E-01 -1.60766835E+00  2.47230083E+00
 -6.20740897E-01 -1.60766835E+00  2.91270208E+00 -2.25921824E+00 -8.83695398E-01
  2.91270208E+00 -2.25921824E+00 -8.83695398E-01  2.91270208E+00 -2.25921824E+00
 -8.83695398E-01  2.91270208E+00 -2.25921824E+00 -8.83695398E-01  2.91270208E+00
 -2.25921824E+00 -8.83695398E-01 -2.47799540E+00 -6.00701404E-01 -1.60688026E+00
 -2.47799540E+00 -6.00701404E-01 -1.60688026E+00 -2.47799540E+00 -6.00701404E-01
 -1.60688026E+00 -2.47799540E+00 -6.00701404E-01 -1.60688026E+00 -2.47799540E+00
 -6.00701404E-01 -1.60688026E+00 -2.47799540E+00 -6.00701404E-01 -1.60688026E+00
 -2.47799540E+00 -6.00701404E-01 -1.60688026E+00 -2.47799540E+00 -6.00701404E-01
 -1.60688026E+00 -2.47799540E+00 -6.00701404E-01 -1.60688026E+00 -2.47799540E+00
 -6.00701404E-01 -1.60688026E+00 -2.93209549E+00 -2.23525441E+00 -8.82110277E-01
 -2.93209549E+00 -2.23525441E+00 -8.82110277E-01 -2.93209549E+00 -2.23525441E+00
 -8.82110277E-01 -2.93209549E+00 -2.23525441E+00 -8.82110277E-01 -2.93209549E+00
 -2.23525441E+00 -8.82110277E-01
Num ILSW                                   I              100
ILSW                                       I   N=         100
           0           0           0           0           2           0
           0           0           0           0        4336          -1
           5           0           0           0           0           0
           0           0           0           0           0           0
           1           0           0           0           0           0
           0           0      100000           0          -1           0
           0           0           0           0           0           0
           0           0           0           1           0           0
           0 -2000000000           1           0           0           0
           0           0           4          52           0           0
           0           0          55           0           0           0
           0           0           0           7           0           1
           0           0           0           0           0           0
           0           0           0           0           0           0
           0           0           0           0           0           0
           0           0           0           0           0           0
           0           0           0           0
Num RLSW                                   I               52
RLSW                                       R   N=          52
  1.00000000E+00  1.00000000E+00  1.00000000E+00  1.00000000E+00  5.40000000E-01
  0.00000000E+00  0.00000000E+00  1.00000000E+00  0.00000000E+00  0.00000000E+00
  0.00000000E+00  0.00000000E+00  1.00000000E+00  0.00000000E+00  0.00000000E+00
  0.00000000E+00  0.00000000E+00  1.00000000E+00  0.00000000E+00  0.00000000E+00
  0.00000000E+00  0.00000000E+00  1.00000000E+00  0.00000000E+00  0.00000000E+00
  0.00000000E+00  0.00000000E+00  1.00000000E+00  0.00000000E+00  0.00000000E+00
  0.00000000E+00  0.00000000E+00  1.00000000E+00  0.00000000E+00  0.00000000E+00
  0.00000000E+00  0.00000000E+00  0.00000000E+00  1.00000000E+00  1.00000000E+00
  0.00000000E+00  1.00000000E+00  0.00000000E+00  0.00000000E+00  0.00000000E+00
  0.00000000E+00  0.00000000E+00  0.00000000E+00  0.00000000E+00  0.00000000E+00
  0.00000000E+00  0.00000000E+00
MxBond                                     I                4
NBond                                      I   N=           7
           4           1           1           2           1           2
           1
IBond                                      I   N=          28
           2           3           4           6           1           0
           0           0           1           0           0           0
           1           5           0           0           4           0
           0           0           1           7           0           0
           6           0           0           0
RBond                                      R   N=          28
  2.00000000E+00  2.00000000E+00  1.00000000E+00  1.00000000E+00  2.00000000E+00
  0.00000000E+00  0.00000000E+00  0.00000000E+00  2.00000000E+00  0.00000000E+00
  0.00000000E+00  0.00000000E+00  1.00000000E+00  1.00000000E+00  0.00000000E+00
  0.00000000E+00  1.00000000E+00  0.00000000E+00  0.00000000E+00  0.00000000E+00
  1.00000000E+00  1.00000000E+00  0.00000000E+00  0.00000000E+00  1.00000000E+00
  0.00000000E+00  0.00000000E+00  0.00000000E+00
Virial Ratio                               R      2.004229779028681E+00
SCF Energy                                 R     -6.436077898008318E+02
Total Energy                               R     -6.436077898008318E+02
RMS Density                                R      8.289040015415293E-09
Job Status                                 I                1
Nuclear derivative order                   I                0
External E-field                           R   N=          35
  0.00000000E+00  8.00000000E-04  0.00000000E+00  0.00000000E+00  0.00000000E+00
  0.00000000E+00  0.00000000E+00  0.00000000E+00  0.00000000E+00  0.00000000E+00
  0.00000000E+00  0.00000000E+00  0.00000000E+00  0.00000000E+00  0.00000000E+00
  0.00000000E+00  0.00000000E+00  0.00000000E+00  0.00000000E+00  0.00000000E+00
  0.00000000E+00  0.00000000E+00  0.00000000E+00  0.00000000E+00  0.00000000E+00
  0.00000000E+00  0.00000000E+00  0.00000000E+00  0.00000000E+00  0.00000000E+00
  0.00000000E+00  0.00000000E+00  0.00000000E+00  0.00000000E+00  0.00000000E+00
IOpCl                                      I                0
IROHF                                      I                0
Alpha Orbital Energies                     R   N=         146
 -7.80121770E+01 -1.94745167E+01 -1.94724092E+01 -1.94078559E+01 -1.93986463E+01
 -6.78295250E+00 -4.90165859E+00 -4.90099874E+00 -4.89903923E+00 -9.98132802E-01
 -9.47161765E-01 -8.92473130E-01 -8.67115869E-01 -4.80840288E-01 -4.03377273E-01
 -3.73837699E-01 -3.31187819E-01 -3.22193855E-01 -2.65452756E-01 -2.55350376E-01
 -2.27538672E-01 -2.01298870E-01 -1.80514134E-01 -1.73685418E-01 -1.63003631E-01
  1.09601150E-01  1.29501996E-01  1.51834721E-01  1.55907335E-01  1.68942362E-01
  1.83425904E-01  1.92258701E-01  1.99407871E-01  2.21530777E-01  2.49122808E-01
  2.71009789E-01  2.98693180E-01  3.15761338E-01  3.20535065E-01  3.22616303E-01
  3.31260233E-01  3.34831191E-01  3.42911971E-01  3.49920951E-01  3.54677634E-01
  3.64479345E-01  3.66990344E-01  3.83696747E-01  3.85060307E-01  3.93102534E-01
  3.95133787E-01  4.03487933E-01  4.28439927E-01  4.35825659E-01  4.55078799E-01
  4.66799397E-01  4.97142367E-01  5.20081640E-01  5.30336544E-01  5.52672650E-01
  5.62349574E-01  5.69613814E-01  5.72279846E-01  6.06366210E-01  6.06819822E-01
  6.37668884E-01  6.48210429E-01  7.20177096E-01  7.25957358E-01  7.60159606E-01
  7.70162440E-01  7.74149061E-01  8.16145410E-01  8.26580775E-01  8.34444084E-01
  8.40609801E-01  8.67532707E-01  8.80460170E-01  9.09247719E-01  9.10964197E-01
  9.16386319E-01  9.42327889E-01  9.69886056E-01  9.88195244E-01  1.00518769E+00
  1.02162854E+00  1.03483591E+00  1.03722766E+00  1.03952274E+00  1.10599984E+00
  1.10807007E+00  1.15151484E+00  1.16630399E+00  1.20868224E+00  1.21261081E+00
  1.26282037E+00  1.28020858E+00  1.30306902E+00  1.30399535E+00  1.34340859E+00
  1.34928275E+00  1.37279246E+00  1.47142285E+00  1.53316190E+00  1.59615841E+00
  1.61226075E+00  1.61612538E+00  1.63230317E+00  1.68795625E+00  1.73379634E+00
  1.77828395E+00  1.81697457E+00  1.88326772E+00  1.92415005E+00  2.00101207E+00
  2.01875010E+00  2.29669549E+00  2.30419386E+00  2.42700334E+00  2.48136498E+00
  2.62188076E+00  2.62195184E+00  2.64264776E+00  2.69776922E+00  2.70032430E+00
  2.73145465E+00  2.73630633E+00  2.74612707E+00  2.77540337E+00  2.78174808E+00
  2.78823640E+00  2.88114123E+00  2.89724962E+00  2.92169926E+00  2.99683962E+00
  3.15742790E+00  3.21397818E+00  3.33886276E+00  3.45243248E+00  3.47377428E+00
  7.39522065E+00  4.29146448E+01  4.29478401E+01  4.31386511E+01  4.32098370E+01
  1.64486887E+02
Alpha MO coefficients                      R   N=       21316
  4.16400414E-01  6.48366536E-01  1.43335355E-02 -4.71443248E-03  3.00109198E-03
  7.96310972E-04 -1.75377945E-03  2.87120915E-07 -2.25395933E-05 -3.05699513E-05
 -1.52586950E-07  4.32189419E-05 -3.19049236E-05  1.07757557E-06  2.47884017E-05
  7.13644972E-04  5.03386109E-06  1.20127073E-03  1.48192604E-03 -3.61749519E-07
  2.22956134E-05 -1.69189124E-04 -1.14341315E-04 -7.59090939E-07 -1.47552449E-04
 -3.37346517E-04  2.62199647E-06  1.35005677E-04  8.17219750E-07  1.40650423E-04
  3.72550167E-04 -2.69521284E-06  4.47674580E-06 -1.65564764E-05  1.75610943E-04
 -5.30131365E-04 -1.10073735E-03  1.54196147E-07  3.46861712E-05  1.98643435E-05
  3.41797411E-06  8.57918250E-04 -8.39212106E-05  2.87696953E-06  7.46206503E-04
 -1.03883852E-04  5.65814412E-05 -5.50718935E-08 -1.52446099E-05  1.03616247E-04
 -8.55840572E-07  2.50036910E-04  4.19826763E-08  9.12722765E-06  4.12124026E-04
 -3.28825217E-06  4.25323859E-06 -1.57293526E-05  1.62732813E-04 -4.53517448E-04
 -8.42620603E-04 -3.29458522E-08 -8.57520993E-06  2.78280036E-05 -2.62372992E-06
 -6.56380655E-04  6.19699631E-04 -2.20207440E-06 -5.71150209E-04  4.72035606E-04
 -4.66106620E-05  3.75491542E-07  9.54192996E-05  4.61406961E-05 -3.63954428E-07
 -1.72900343E-04  1.74644394E-06  4.36727269E-04  1.76330031E-04 -1.39180446E-06
  3.19129655E-06 -1.16693283E-05  8.36660549E-05 -2.11877448E-04  1.33478962E-03
  1.13406913E-05  8.41106682E-06 -4.69269370E-06 -7.56982220E-05  5.62254676E-05
 -8.16363572E-05 -1.49913579E-04  4.57988565E-06  1.32529858E-04  1.48743186E-07
  4.74852874E-05  5.52916551E-06 -1.37922290E-05  3.26881609E-05 -1.46010965E-04
  1.13209606E-04 -4.37053765E-05 -3.19797877E-05 -1.70920325E-04 -1.00984611E-05
  4.40507723E-04  9.57110319E-05 -9.62016822E-05  6.41724345E-05  4.13045953E-05
 -4.38333025E-04  1.07344499E-04  1.12482015E-04  3.18833741E-06 -1.16591779E-05
  8.35618587E-05 -2.11521219E-04  1.33565542E-03 -1.12802705E-05  8.50601512E-06
 -4.68579080E-06  7.67270890E-05  5.56759261E-05 -8.11588326E-05  1.50689923E-04
  3.28235630E-06  1.32968142E-04  1.83900541E-07 -4.73945338E-05  5.94431867E-06
 -1.43617389E-05 -3.24470272E-05 -1.45891520E-04 -1.13336426E-04 -4.28763349E-05
 -2.89409905E-05  1.71393944E-04 -1.01444525E-05  4.39571858E-04  9.51659113E-05
  9.66743336E-05  6.33368660E-05  4.12287592E-05  4.38906880E-04  1.03633722E-04
  1.12031734E-04  1.62367374E-06 -2.57189409E-06  5.00878255E-05 -1.78253985E-04
 -1.04787297E-03  1.19384999E-02 -9.20023621E-04  1.86588818E-05 -2.23974045E-05
 -2.15754723E-05 -5.35366696E-04  3.88230208E-04  4.58566417E-04  4.49896715E-03
 -2.75810155E-03 -3.39938894E-03  4.21368165E-03 -3.32896010E-03 -4.33239790E-03
  7.24148706E-04 -1.96161030E-04 -9.36362198E-05 -1.17162417E-04 -1.39963873E-03
  3.66907537E-04  8.22281069E-04 -8.97080837E-04  1.42361969E-05 -4.53273610E-04
 -1.69581718E-04 -6.45906596E-04 -5.41658537E-04 -9.65741390E-06 -3.38771089E-05
  7.77130937E-05  1.78158798E-04  1.79244542E-03  1.92922181E-05 -7.82033898E-05
 -5.12596694E-05 -4.60522772E-04 -3.45411696E-04  6.13749808E-04 -5.00814143E-04
 -3.56032342E-04  1.13032178E-03 -2.09915879E-05  2.45568279E-05 -3.96301130E-06
 -5.66569898E-05  2.69678490E-05 -8.26187153E-05  1.52889231E-04 -6.36849386E-04
 -1.09714573E-04  4.28700013E-04 -8.41093467E-06 -5.27868539E-05  2.37886605E-04
 -6.77372249E-04 -5.69881830E-04  1.86828024E-05  6.20953757E-07 -7.45081545E-05
 -7.11438462E-04  2.26280251E-04  1.04665815E-03 -7.75943815E-04  5.95637098E-04
  1.04111695E-03 -1.18370719E-05  6.76908666E-05 -3.12061520E-05 -4.79935201E-05
 -1.35171645E-05 -7.60305145E-04  4.52468062E-04  8.35897538E-05 -2.51363579E-04
 -3.23613445E-04  4.19518094E-01  6.62375314E-01  1.89470572E-02 -1.11758599E-02
 -8.27383310E-03 -4.36009487E-04 -7.37733188E-04  9.19721532E-04  4.51337208E-03
 -1.32498381E-04 -4.31859503E-03  1.27404345E-03 -2.85333363E-04 -1.33108664E-03
 -1.03483777E-05  2.48163568E-04 -4.29435803E-05 -1.40649442E-04  7.03894577E-05
 -3.67691739E-04  1.88228157E-03 -1.16025042E-04 -1.02993909E-03  5.07446886E-04
  5.80801583E-04  3.05160166E-03 -1.83224260E-04 -1.83767920E-04 -2.00794752E-04
  4.89394387E-04 -4.84444526E-04  1.65113173E-03 -4.70352536E-04 -5.60518011E-04
 -8.98143936E-04  4.68280326E-05 -5.33577690E-05 -2.03095308E-05  4.01399491E-05
 -6.96393373E-06  5.50326292E-06 -6.76894353E-04  1.73506072E-04  2.60434110E-04
 -1.43048203E-03  9.93252848E-04  6.84544423E-04  3.02096670E-06  5.08198710E-05
  4.90732011E-06 -4.15389305E-05  2.09606980E-05  6.68364231E-04 -8.79613922E-06
  3.02103286E-04 -3.55558353E-04  6.08849484E-05  3.68089234E-05  6.85124731E-05
  1.98694686E-04 -6.49000847E-05 -3.32880907E-05 -1.87447844E-05 -7.80412333E-05
 -5.41545488E-04 -8.74047815E-05  1.63368425E-06 -2.53568588E-06  5.00036113E-05
 -1.78458050E-04 -1.05361910E-03  1.19937498E-02 -9.15566613E-04 -1.87502192E-05
 -2.23020535E-05 -2.15929609E-05  5.37107688E-04  3.85074608E-04  4.59544992E-04
 -4.51579380E-03 -2.73038894E-03 -3.40946207E-03 -4.23345089E-03 -3.31935951E-03
 -4.35027374E-03 -7.20694239E-04 -1.91278002E-04 -9.35202295E-05 -1.18934034E-04
  1.39943221E-03  3.56189913E-04  8.39050467E-04  8.82300794E-04  1.35553301E-05
  4.47962025E-04 -1.74526782E-04 -6.39444502E-04  5.49643953E-04 -1.00400147E-05
 -3.45807208E-05  7.82585777E-05  1.76969009E-04  1.80575466E-03 -1.98199607E-05
 -7.81261702E-05 -5.14118974E-05  4.56364873E-04 -3.49609358E-04  6.15975031E-04
  4.96627378E-04 -3.63112464E-04  1.13453354E-03 -2.10187140E-05 -2.45773589E-05
 -3.76342114E-06 -5.72319524E-05 -2.59848117E-05 -8.26803388E-05 -1.57032472E-04
 -6.37872964E-04 -1.16601226E-04 -4.25686953E-04 -8.82473008E-06 -5.36253591E-05
  2.39073836E-04 -6.82203245E-04 -5.75308938E-04 -1.86346709E-05  6.52015480E-07
 -7.46528169E-05  7.12030303E-04  2.21364090E-04  1.05118079E-03  7.79444089E-04
  5.93166991E-04  1.04527986E-03 -1.18531361E-05 -6.77882071E-05 -3.06768505E-05
 -4.79570901E-05  1.42687203E-05 -7.63147825E-04 -4.50752537E-04  8.66917579E-05
 -2.47150169E-04  3.27286739E-04  5.64006146E-04  8.77310889E-04  9.80117056E-05
 -8.54891151E-05 -3.38321990E-05 -4.10056584E-05 -8.61137628E-06  7.98636584E-06
  6.89693369E-04  1.67417429E-04  2.48898250E-04  1.43849816E-03  9.81025697E-04
  6.82047077E-04  3.13069863E-06 -5.01708284E-05  5.17334730E-06 -4.25203519E-05
 -2.00758905E-05  6.67120544E-04  1.62619497E-05  3.02797155E-04 -3.57226023E-04
 -5.32312684E-05  3.90000274E-05  6.77586687E-05  1.96310921E-04  6.50529185E-05
 -3.45084469E-05 -1.74721678E-05  7.46915326E-05 -5.41226437E-04 -8.83186069E-05
  4.19518335E-01  6.62375643E-01  1.89457457E-02 -1.11735016E-02 -8.29656537E-03
  4.39419081E-04 -7.40768520E-04  9.22563853E-04 -4.53003030E-03 -9.63461875E-05
 -4.32300392E-03 -1.29249929E-03 -2.73502849E-04 -1.33487762E-03 -1.02490003E-05
 -2.48162014E-04 -4.07289703E-05 -1.41587413E-04 -6.82985559E-05 -3.64822840E-04
 -1.88851492E-03 -1.00407729E-04 -1.04397108E-03 -4.89909792E-04  5.81330331E-04
  3.04949796E-03 -1.84733839E-04  1.83488607E-04 -2.01222571E-04  4.89548339E-04
  4.99746448E-04  1.64355550E-03 -4.70300004E-04  2.91011857E-06  8.20192549E-07
  5.03238014E-05 -2.76291179E-04  1.31216346E-04  1.99534655E-02 -2.20337671E-04
 -2.40299129E-07 -5.52480521E-05  3.56677225E-05  2.44730930E-06  6.10550050E-04
 -2.95339375E-04 -2.74665337E-05 -7.10181751E-03  5.52345852E-03 -3.70482741E-05
 -1.15753719E-02  5.03776742E-03  5.17213054E-06  3.81854765E-04 -5.42299725E-04
  9.35846813E-04 -6.43598470E-06 -1.72602683E-03 -4.90714526E-04  3.41468109E-06
 -8.14758750E-04  3.84277757E-06  1.19776819E-03 -2.72162147E-04 -1.66581283E-06
 -1.10187699E-04 -1.85466002E-04 -2.45825103E-07  7.38749928E-04  7.07154994E-03