dhp                                                                     
SP        RM062X                                                      Gen                 
Number of atoms                            I                7
Info1-9                                    I   N=           9
         113         113           0           0           0         110
           1          18       -5502
Full Title                                 C   N=           1
dhp         
Route                                      C   N=           5
#P M062X/Gen field=Y+8 int=(grid=ultrafine) polar=Dipole    
Charge                                     I               -1
Multiplicity                               I                1
Number of electrons                        I               50
Number of alpha electrons                  I               25
Number of beta electrons                   I               25
Number of basis functions                  I              146
Number of independent functions            I              146
Number of point charges in /Mol/           I                0
Number of translation vectors              I                0
Atomic numbers                             I   N=           7
          15           8           8           8           1           8
           1
Nuclear charges                            R   N=           7
  1.50000000E+01  8.00000000E+00  8.00000000E+00  8.00000000E+00  1.00000000E+00
  8.00000000E+00  1.00000000E+00
Current cartesian coordinates              R   N=          21
  9.96731771E-04  2.20234617E-01  2.76478681E-01  1.26116075E-02  3.04296290E+00
  4.88912571E-01 -6.36173205E-03 -1.67265143E+00  2.42796422E+00  2.47230083E+00
 -6.20740897E-01 -1.60766835E+00  2.91270208E+00 -2.25921824E+00 -8.83695398E-01
 -2.47799540E+00 -6.00701404E-01 -1.60688026E+00 -2.93209549E+00 -2.23525441E+00
 -8.82110277E-01
Number of symbols in /Mol/                 I                0
Int Atom Types                             I   N=           7
           0           0           0           0           0           0
           0
Force Field                                I                0
Atom Types                                 C   N=           7
                                                            
                        
MM charges                                 R   N=           7
  0.00000000E+00  0.00000000E+00  0.00000000E+00  0.00000000E+00  0.00000000E+00
  0.00000000E+00  0.00000000E+00
Integer atomic weights                     I   N=           7
          31          16          16          16           1          16
           1
Real atomic weights                        R   N=           7
  3.09737634E+01  1.59949146E+01  1.59949146E+01  1.59949146E+01  1.00782504E+00
  1.59949146E+01  1.00782504E+00
Atom fragment info                         I   N=           7
           0           0           0           0           0           0
           0
Atom residue num                           I   N=           7
           0           0           0           0           0           0
           0
Nuclear spins                              I   N=           7
           1           0           0           0           1           0
           1
Nuclear ZEff                               R   N=           7
 -1.29400000E+01 -5.60000000E+00 -5.60000000E+00 -5.60000000E+00 -1.00000000E+00
 -5.60000000E+00 -1.00000000E+00
Nuclear ZNuc                               R   N=           7
  1.50000000E+01  8.00000000E+00  8.00000000E+00  8.00000000E+00  1.00000000E+00
  8.00000000E+00  1.00000000E+00
Nuclear QMom                               R   N=           7
  0.00000000E+00  0.00000000E+00  0.00000000E+00  0.00000000E+00  0.00000000E+00
  0.00000000E+00  0.00000000E+00
Nuclear GFac                               R   N=           7
  1.13160000E+00  0.00000000E+00  0.00000000E+00  0.00000000E+00  2.79284600E+00
  0.00000000E+00  2.79284600E+00
MicOpt                                     I   N=           7
          -1          -1          -1          -1          -1          -1
          -1
Number of residues                         I                0
Number of secondary structures             I                0
SymInf integers                            I   N=          26
           1           1           1           1           1           0
           0           0           0           0           0           0
           0           0           0           0           0           0
           0           0           0           0           0           0
           0           0
RotTr to input orientation                 R   N=          12
  1.58467082E-02 -9.97199940E-01  7.30832468E-02 -9.97863049E-01 -1.11386609E-02
  6.43837374E-02 -6.33894096E-02 -7.39473418E-02 -9.95245484E-01  2.01115993E+00
  1.94358910E+00  2.74801273E-01
Number of contracted shells                I               64
Number of primitive shells                 I              128
Pure/Cartesian d shells                    I                0
Pure/Cartesian f shells                    I                0
Highest angular momentum                   I                2
Largest degree of contraction              I                6
Shell types                                I   N=          64
           0           0           0           0           0           0
           0           1           1           1           1           1
          -2          -2           0           0           0           0
           0           1           1           1          -2          -2
           0           0           0           0           0           1
           1           1          -2          -2           0           0
           0           0           0           1           1           1
          -2          -2           0           0           0           1
           1           0           0           0           0           0
           1           1           1          -2          -2           0
           0           0           1           1
Number of primitives per shell             I   N=          64
           6           3           1           1           1           1
           1           6           1           1           1           1
           2           2           5           2           1           1
           1           4           1           1           2           2
           5           2           1           1           1           4
           1           1           2           2           5           2
           1           1           1           4           1           1
           2           2           4           1           1           2
           2           5           2           1           1           1
           4           1           1           2           2           4
           1           1           2           2
Shell to atom map                          I   N=          64
           1           1           1           1           1           1
           1           1           1           1           1           1
           1           1           2           2           2           2
           2           2           2           2           2           2
           3           3           3           3           3           3
           3           3           3           3           4           4
           4           4           4           4           4           4
           4           4           5           5           5           5
           5           6           6           6           6           6
           6           6           6           6           6           7
           7           7           7           7
Primitive exponents                        R   N=         128
  7.74924300E+04  1.16057900E+04  2.64596000E+03  7.54980000E+02  2.48750000E+02
  9.11570000E+01  9.11570000E+01  3.62260000E+01  1.52110000E+01  4.71380000E+00
  1.78270000E+00  3.42500000E-01  1.24600000E-01  4.53000000E-02  3.84840000E+02
  9.05520000E+01  2.88060000E+01  1.06880000E+01  4.25210000E+00  1.74050000E+00
  5.97900000E-01  2.29200000E-01  8.38000000E-02  3.06000000E-02  5.97900000E-01
  2.29200000E-01  8.38000000E-02  3.06000000E-02  1.06622850E+04  1.59970970E+03
  3.64725260E+02  1.03651790E+02  3.39058050E+01  1.22874690E+01  4.75680500E+00
  1.00427100E+00  3.00686000E-01  9.00300000E-02  3.48564630E+01  7.84313100E+00
  2.30624900E+00  7.23164000E-01  2.14882000E-01  6.38500000E-02  2.30620000E+00
  7.23200000E-01  2.14900000E-01  6.39000000E-02  1.06622850E+04  1.59970970E+03
  3.64725260E+02  1.03651790E+02  3.39058050E+01  1.22874690E+01  4.75680500E+00
  1.00427100E+00  3.00686000E-01  9.00300000E-02  3.48564630E+01  7.84313100E+00
  2.30624900E+00  7.23164000E-01  2.14882000E-01  6.38500000E-02  2.30620000E+00
  7.23200000E-01  2.14900000E-01  6.39000000E-02  1.06622850E+04  1.59970970E+03
  3.64725260E+02  1.03651790E+02  3.39058050E+01  1.22874690E+01  4.75680500E+00
  1.00427100E+00  3.00686000E-01  9.00300000E-02  3.48564630E+01  7.84313100E+00
  2.30624900E+00  7.23164000E-01  2.14882000E-01  6.38500000E-02  2.30620000E+00
  7.23200000E-01  2.14900000E-01  6.39000000E-02  3.36850140E+01  5.09478800E+00
  1.15878600E+00  3.25840000E-01  1.02741000E-01  3.24000000E-02  1.15880000E+00
  3.25800000E-01  1.02700000E-01  3.24000000E-02  1.06622850E+04  1.59970970E+03
  3.64725260E+02  1.03651790E+02  3.39058050E+01  1.22874690E+01  4.75680500E+00
  1.00427100E+00  3.00686000E-01  9.00300000E-02  3.48564630E+01  7.84313100E+00
  2.30624900E+00  7.23164000E-01  2.14882000E-01  6.38500000E-02  2.30620000E+00
  7.23200000E-01  2.14900000E-01  6.39000000E-02  3.36850140E+01  5.09478800E+00
  1.15878600E+00  3.25840000E-01  1.02741000E-01  3.24000000E-02  1.15880000E+00
  3.25800000E-01  1.02700000E-01  3.24000000E-02
Contraction coefficients                   R   N=         128
  7.86998727E-04  6.10899012E-03  3.13679492E-02  1.24290799E-01  3.80681384E-01
  5.59988094E-01  1.63997236E-01  6.25927902E-01  2.62211378E-01  1.00000000E+00
  1.00000000E+00  1.00000000E+00  1.00000000E+00  1.00000000E+00  3.76499575E-03
  2.90099673E-02  1.22952861E-01  3.06469654E-01  4.41348502E-01  2.95816666E-01
  1.00000000E+00  1.00000000E+00  1.00000000E+00  1.00000000E+00  2.57098289E-01
  8.07536332E-01  6.80799999E-01  4.12315493E-01  1.90604745E-03  1.46782352E-02
  7.43263084E-02  2.75759025E-01  7.19364732E-01  6.69996511E-01  3.66229217E-01
  1.00000000E+00  1.00000000E+00  1.00000000E+00  1.99439284E-02  1.25155543E-01
  3.92261182E-01  6.27670401E-01  1.00000000E+00  1.00000000E+00  2.83613619E-01
  8.10264660E-01  6.73833443E-01  4.58004278E-01  1.90604745E-03  1.46782352E-02
  7.43263084E-02  2.75759025E-01  7.19364732E-01  6.69996511E-01  3.66229217E-01
  1.00000000E+00  1.00000000E+00  1.00000000E+00  1.99439284E-02  1.25155543E-01
  3.92261182E-01  6.27670401E-01  1.00000000E+00  1.00000000E+00  2.83613619E-01
  8.10264660E-01  6.73833443E-01  4.58004278E-01  1.90604745E-03  1.46782352E-02
  7.43263084E-02  2.75759025E-01  7.19364732E-01  6.69996511E-01  3.66229217E-01
  1.00000000E+00  1.00000000E+00  1.00000000E+00  1.99439284E-02  1.25155543E-01
  3.92261182E-01  6.27670401E-01  1.00000000E+00  1.00000000E+00  2.83613619E-01
  8.10264660E-01  6.73833443E-01  4.58004278E-01  8.76040453E-03  6.54229551E-02
  2.92849871E-01  7.27207417E-01  1.00000000E+00  1.00000000E+00  1.86447366E-01
  8.73088966E-01  9.76214574E-01  3.48056130E-02  1.90604745E-03  1.46782352E-02
  7.43263084E-02  2.75759025E-01  7.19364732E-01  6.69996511E-01  3.66229217E-01
  1.00000000E+00  1.00000000E+00  1.00000000E+00  1.99439284E-02  1.25155543E-01
  3.92261182E-01  6.27670401E-01  1.00000000E+00  1.00000000E+00  2.83613619E-01
  8.10264660E-01  6.73833443E-01  4.58004278E-01  8.76040453E-03  6.54229551E-02
  2.92849871E-01  7.27207417E-01  1.00000000E+00  1.00000000E+00  1.86447366E-01
  8.73088966E-01  9.76214574E-01  3.48056130E-02
Coordinates of each shell                  R   N=         192
  9.96731771E-04  2.20234617E-01  2.76478681E-01  9.96731771E-04  2.20234617E-01
  2.76478681E-01  9.96731771E-04  2.20234617E-01  2.76478681E-01  9.96731771E-04
  2.20234617E-01  2.76478681E-01  9.96731771E-04  2.20234617E-01  2.76478681E-01
  9.96731771E-04  2.20234617E-01  2.76478681E-01  9.96731771E-04  2.20234617E-01
  2.76478681E-01  9.96731771E-04  2.20234617E-01  2.76478681E-01  9.96731771E-04
  2.20234617E-01  2.76478681E-01  9.96731771E-04  2.20234617E-01  2.76478681E-01
  9.96731771E-04  2.20234617E-01  2.76478681E-01  9.96731771E-04  2.20234617E-01
  2.76478681E-01  9.96731771E-04  2.20234617E-01  2.76478681E-01  9.96731771E-04
  2.20234617E-01  2.76478681E-01  1.26116075E-02  3.04296290E+00  4.88912571E-01
  1.26116075E-02  3.04296290E+00  4.88912571E-01  1.26116075E-02  3.04296290E+00
  4.88912571E-01  1.26116075E-02  3.04296290E+00  4.88912571E-01  1.26116075E-02
  3.04296290E+00  4.88912571E-01  1.26116075E-02  3.04296290E+00  4.88912571E-01
  1.26116075E-02  3.04296290E+00  4.88912571E-01  1.26116075E-02  3.04296290E+00
  4.88912571E-01  1.26116075E-02  3.04296290E+00  4.88912571E-01  1.26116075E-02
  3.04296290E+00  4.88912571E-01 -6.36173205E-03 -1.67265143E+00  2.42796422E+00
 -6.36173205E-03 -1.67265143E+00  2.42796422E+00 -6.36173205E-03 -1.67265143E+00
  2.42796422E+00 -6.36173205E-03 -1.67265143E+00  2.42796422E+00 -6.36173205E-03
 -1.67265143E+00  2.42796422E+00 -6.36173205E-03 -1.67265143E+00  2.42796422E+00
 -6.36173205E-03 -1.67265143E+00  2.42796422E+00 -6.36173205E-03 -1.67265143E+00
  2.42796422E+00 -6.36173205E-03 -1.67265143E+00  2.42796422E+00 -6.36173205E-03
 -1.67265143E+00  2.42796422E+00  2.47230083E+00 -6.20740897E-01 -1.60766835E+00
  2.47230083E+00 -6.20740897E-01 -1.60766835E+00  2.47230083E+00 -6.20740897E-01
 -1.60766835E+00  2.47230083E+00 -6.20740897E-01 -1.60766835E+00  2.47230083E+00
 -6.20740897E-01 -1.60766835E+00  2.47230083E+00 -6.20740897E-01 -1.60766835E+00
  2.47230083E+00 -6.20740897E-01 -1.60766835E+00  2.47230083E+00 -6.20740897E-01
 -1.60766835E+00  2.47230083E+00 -6.20740897E-01 -1.60766835E+00  2.47230083E+00
 -6.20740897E-01 -1.60766835E+00  2.91270208E+00 -2.25921824E+00 -8.83695398E-01
  2.91270208E+00 -2.25921824E+00 -8.83695398E-01  2.91270208E+00 -2.25921824E+00
 -8.83695398E-01  2.91270208E+00 -2.25921824E+00 -8.83695398E-01  2.91270208E+00
 -2.25921824E+00 -8.83695398E-01 -2.47799540E+00 -6.00701404E-01 -1.60688026E+00
 -2.47799540E+00 -6.00701404E-01 -1.60688026E+00 -2.47799540E+00 -6.00701404E-01
 -1.60688026E+00 -2.47799540E+00 -6.00701404E-01 -1.60688026E+00 -2.47799540E+00
 -6.00701404E-01 -1.60688026E+00 -2.47799540E+00 -6.00701404E-01 -1.60688026E+00
 -2.47799540E+00 -6.00701404E-01 -1.60688026E+00 -2.47799540E+00 -6.00701404E-01
 -1.60688026E+00 -2.47799540E+00 -6.00701404E-01 -1.60688026E+00 -2.47799540E+00
 -6.00701404E-01 -1.60688026E+00 -2.93209549E+00 -2.23525441E+00 -8.82110277E-01
 -2.93209549E+00 -2.23525441E+00 -8.82110277E-01 -2.93209549E+00 -2.23525441E+00
 -8.82110277E-01 -2.93209549E+00 -2.23525441E+00 -8.82110277E-01 -2.93209549E+00
 -2.23525441E+00 -8.82110277E-01
Num ILSW                                   I              100
ILSW                                       I   N=         100
           0           0           0           0           2           0
           0           0           0           0        4336          -1
           5           0           0           0           0           0
           0           0           0           0           0           0
           1           0           0           0           0           0
           0           0      100000           0          -1           0
           0           0           0           0           0           0
           0           0           0           1           0           0
           0 -2000000000           1           0           0           0
           0           0           4          52           0           0
           0           0          55           0           0           0
           0           0           0           7           0           1
           0           0           0           0           0           0
           0           0           0           0           0           0
           0           0           0           0           0           0
           0           0           0           0           0           0
           0           0           0           0
Num RLSW                                   I               52
RLSW                                       R   N=          52
  1.00000000E+00  1.00000000E+00  1.00000000E+00  1.00000000E+00  5.40000000E-01
  0.00000000E+00  0.00000000E+00  1.00000000E+00  0.00000000E+00  0.00000000E+00
  0.00000000E+00  0.00000000E+00  1.00000000E+00  0.00000000E+00  0.00000000E+00
  0.00000000E+00  0.00000000E+00  1.00000000E+00  0.00000000E+00  0.00000000E+00
  0.00000000E+00  0.00000000E+00  1.00000000E+00  0.00000000E+00  0.00000000E+00
  0.00000000E+00  0.00000000E+00  1.00000000E+00  0.00000000E+00  0.00000000E+00
  0.00000000E+00  0.00000000E+00  1.00000000E+00  0.00000000E+00  0.00000000E+00
  0.00000000E+00  0.00000000E+00  0.00000000E+00  1.00000000E+00  1.00000000E+00
  0.00000000E+00  1.00000000E+00  0.00000000E+00  0.00000000E+00  0.00000000E+00
  0.00000000E+00  0.00000000E+00  0.00000000E+00  0.00000000E+00  0.00000000E+00
  0.00000000E+00  0.00000000E+00
MxBond                                     I                4
NBond                                      I   N=           7
           4           1           1           2           1           2
           1
IBond                                      I   N=          28
           2           3           4           6           1           0
           0           0           1           0           0           0
           1           5           0           0           4           0
           0           0           1           7           0           0
           6           0           0           0
RBond                                      R   N=          28
  2.00000000E+00  2.00000000E+00  1.00000000E+00  1.00000000E+00  2.00000000E+00
  0.00000000E+00  0.00000000E+00  0.00000000E+00  2.00000000E+00  0.00000000E+00
  0.00000000E+00  0.00000000E+00  1.00000000E+00  1.00000000E+00  0.00000000E+00
  0.00000000E+00  1.00000000E+00  0.00000000E+00  0.00000000E+00  0.00000000E+00
  1.00000000E+00  1.00000000E+00  0.00000000E+00  0.00000000E+00  1.00000000E+00
  0.00000000E+00  0.00000000E+00  0.00000000E+00
Virial Ratio                               R      2.004233148374060E+00
SCF Energy                                 R     -6.436088406840308E+02
Total Energy                               R     -6.436088406840308E+02
RMS Density                                R      3.401952312519960E-09
Job Status                                 I                1
Nuclear derivative order                   I                0
External E-field                           R   N=          35
  0.00000000E+00  0.00000000E+00  8.00000000E-04  0.00000000E+00  0.00000000E+00
  0.00000000E+00  0.00000000E+00  0.00000000E+00  0.00000000E+00  0.00000000E+00
  0.00000000E+00  0.00000000E+00  0.00000000E+00  0.00000000E+00  0.00000000E+00
  0.00000000E+00  0.00000000E+00  0.00000000E+00  0.00000000E+00  0.00000000E+00
  0.00000000E+00  0.00000000E+00  0.00000000E+00  0.00000000E+00  0.00000000E+00
  0.00000000E+00  0.00000000E+00  0.00000000E+00  0.00000000E+00  0.00000000E+00
  0.00000000E+00  0.00000000E+00  0.00000000E+00  0.00000000E+00  0.00000000E+00
IOpCl                                      I                0
IROHF                                      I                0
Alpha Orbital Energies                     R   N=         146
 -7.80122338E+01 -1.94730173E+01 -1.94730117E+01 -1.94072703E+01 -1.93995721E+01
 -6.78299829E+00 -4.90169958E+00 -4.90104374E+00 -4.89909894E+00 -9.97791875E-01
 -9.46712321E-01 -8.92558929E-01 -8.67299906E-01 -4.80598147E-01 -4.03031281E-01
 -3.73410845E-01 -3.30804715E-01 -3.22327858E-01 -2.65463847E-01 -2.55251322E-01
 -2.27327113E-01 -2.01423214E-01 -1.80004930E-01 -1.74400193E-01 -1.63268704E-01
  1.13320674E-01  1.31999449E-01  1.51490580E-01  1.55941135E-01  1.66765033E-01
  1.82061829E-01  1.91771609E-01  1.99375822E-01  2.22553161E-01  2.50309557E-01
  2.73307584E-01  2.98288833E-01  3.15914708E-01  3.20880563E-01  3.21628509E-01
  3.31368200E-01  3.35094471E-01  3.43243103E-01  3.50659513E-01  3.54642912E-01
  3.62252761E-01  3.64233819E-01  3.84165181E-01  3.84856557E-01  3.93071045E-01
  3.95611268E-01  4.03497118E-01  4.28980136E-01  4.36478795E-01  4.55450287E-01
  4.67936742E-01  4.97575924E-01  5.21481278E-01  5.31103002E-01  5.52393010E-01
  5.63504640E-01  5.70669923E-01  5.72569957E-01  6.06041264E-01  6.06063262E-01
  6.37693071E-01  6.47913542E-01  7.20319224E-01  7.25973143E-01  7.59952118E-01
  7.70383862E-01  7.74399344E-01  8.16055742E-01  8.26457808E-01  8.34607426E-01
  8.40898529E-01  8.67885352E-01  8.80941400E-01  9.09662092E-01  9.10496223E-01
  9.16659507E-01  9.40866510E-01  9.69916217E-01  9.87982345E-01  1.00521633E+00
  1.02214769E+00  1.03464344E+00  1.03717293E+00  1.03975120E+00  1.10663008E+00
  1.10838939E+00  1.15184363E+00  1.16634230E+00  1.20877693E+00  1.21281547E+00
  1.26256932E+00  1.28060895E+00  1.30268646E+00  1.30428413E+00  1.34390321E+00
  1.34994401E+00  1.37260028E+00  1.47185331E+00  1.53311954E+00  1.59653420E+00
  1.61248406E+00  1.61564541E+00  1.63257582E+00  1.68852106E+00  1.73406340E+00
  1.77862028E+00  1.81712789E+00  1.88343958E+00  1.92448220E+00  2.00197762E+00
  2.01936564E+00  2.29699725E+00  2.30447644E+00  2.42715571E+00  2.48099804E+00
  2.62148503E+00  2.62225785E+00  2.64197766E+00  2.69788401E+00  2.70055749E+00
  2.73172808E+00  2.73613283E+00  2.74657063E+00  2.77540124E+00  2.78162482E+00
  2.78847860E+00  2.88095869E+00  2.89772070E+00  2.92169809E+00  2.99682109E+00
  3.15766480E+00  3.21412105E+00  3.33839556E+00  3.45296639E+00  3.47407074E+00
  7.39519030E+00  4.29150792E+01  4.29482634E+01  4.31382110E+01  4.32099501E+01
  1.64486832E+02
Alpha MO coefficients                      R   N=       21316
  4.16400423E-01  6.48366535E-01  1.43335141E-02 -4.71441687E-03  3.00110355E-03
  7.96045587E-04 -1.75370951E-03 -9.65552531E-08 -2.18179105E-05 -3.06405660E-05
  1.35254917E-07  4.26444086E-05 -3.18366887E-05  5.99822458E-07  2.58846778E-05
  7.13443450E-04  5.09266335E-06  1.20081261E-03  1.48190000E-03 -2.19267187E-07
  2.22101743E-05 -1.69172797E-04 -1.14377882E-04 -6.75930169E-07 -1.47496377E-04
 -3.37392244E-04  2.66767210E-06  1.35062946E-04  7.22169889E-07  1.40633719E-04
  3.72566087E-04 -2.79387421E-06  4.47906894E-06 -1.65628241E-05  1.75633727E-04
 -5.30363049E-04 -1.10086647E-03  1.52368022E-07  3.46822666E-05  1.98651238E-05
  3.45741103E-06  8.58198134E-04 -8.38907566E-05  2.90734836E-06  7.46389225E-04
 -1.03847055E-04  5.65618029E-05 -5.93279780E-08 -1.52380708E-05  1.03580519E-04
 -8.54670390E-07  2.50101412E-04  4.83667062E-08  9.09172368E-06  4.12248392E-04
 -3.32623789E-06  4.25162053E-06 -1.57246873E-05  1.62712692E-04 -4.53345310E-04
 -8.42294279E-04 -3.32052471E-08 -8.57875051E-06  2.78333716E-05 -2.58820352E-06
 -6.56224048E-04  6.19444542E-04 -2.21144332E-06 -5.71039971E-04  4.71815700E-04
 -4.66201248E-05  3.72424331E-07  9.54401247E-05  4.61525904E-05 -3.64156778E-07
 -1.72801526E-04  1.72029803E-06  4.36626743E-04  1.76309933E-04 -1.36929506E-06
  3.19002480E-06 -1.16651956E-05  8.36341006E-05 -2.11727200E-04  1.33513880E-03
  1.13406338E-05  8.41224116E-06 -4.69779351E-06 -7.58257652E-05  5.61784631E-05
 -8.14488448E-05 -1.50120054E-04  4.62346659E-06  1.32720470E-04  1.50328264E-07
  4.74906102E-05  5.52233818E-06 -1.37950146E-05  3.26909090E-05 -1.45967253E-04
  1.13101953E-04 -4.37326220E-05 -3.19576749E-05 -1.70892368E-04 -1.01335342E-05
  4.40073179E-04  9.56441214E-05 -9.61978500E-05  6.41613028E-05  4.13069705E-05
 -4.38131085E-04  1.07290563E-04  1.12357169E-04  3.18847783E-06 -1.16592785E-05
  8.35645867E-05 -2.11540931E-04  1.33571270E-03 -1.12810246E-05  8.50693689E-06
 -4.68972357E-06  7.66790799E-05  5.55698404E-05 -8.11691969E-05  1.50692011E-04
  3.33360734E-06  1.32998396E-04  1.81163475E-07 -4.73941063E-05  5.93675991E-06
 -1.43549907E-05 -3.24508369E-05 -1.45878251E-04 -1.13348620E-04 -4.29286213E-05
 -2.89691425E-05  1.71320994E-04 -1.01657619E-05  4.39332358E-04  9.52738733E-05
  9.66690533E-05  6.33362845E-05  4.12352570E-05  4.38754341E-04  1.03600978E-04
  1.11964540E-04  3.83118324E-09 -6.23998826E-09  1.16391964E-07 -3.91661392E-07
 -2.99652250E-06  2.77570698E-05 -5.37268684E-06 -2.64357818E-05  4.81999392E-08
 -4.98740514E-08  7.58313556E-04 -2.05170256E-06  1.06491253E-06 -6.37550321E-03
  1.92242099E-05 -6.62051724E-06 -5.97611755E-03  1.34609158E-05 -9.18946958E-06
 -1.02202836E-03  4.16048062E-06 -1.46586154E-07 -9.69045172E-07  1.97954009E-03
 -7.50893457E-06  1.25019094E-05  1.25804647E-03  1.32607949E-07  6.37251728E-04
 -3.32152683E-06  5.36118666E-06  7.71107112E-04 -2.53968420E-08 -8.40803965E-08
  1.68111041E-07  6.59012176E-07  6.97252866E-06 -2.76544743E-05 -7.76967228E-08
 -1.36823855E-07  6.48750723E-04 -3.65738244E-06  1.41936107E-06  7.05997853E-04
 -3.88242246E-06  2.97555651E-06 -4.80062462E-08 -3.47654763E-05  1.63572196E-07
 -4.55329369E-07 -3.74789386E-05 -2.58692299E-09 -2.19029571E-04 -7.32876550E-07
 -5.17503071E-06 -6.04354512E-04 -1.64166471E-08 -1.35867043E-07  6.65255852E-07
 -1.94373099E-06 -2.68615031E-06 -2.64258804E-05  1.08556803E-07 -1.89749598E-07
  1.00680268E-03 -3.65999175E-06  2.71992968E-06  1.10069595E-03 -3.42597883E-06
  2.90406033E-06 -2.57486028E-09 -9.57531651E-05  3.08828268E-07  2.35539444E-08
  1.96341553E-05 -1.83988364E-06 -6.38963688E-04  2.87423590E-06  2.98695900E-06
  4.60443519E-04 -2.96089733E-01 -4.67503885E-01 -1.33213695E-02  7.83980000E-03
  5.83005549E-03  2.82479301E-04  5.12954721E-04 -6.45546865E-04 -2.70725422E-03
  2.14015705E-04  3.23185008E-03  1.12843442E-04  8.97830144E-04  1.42581318E-03
  9.41349542E-06 -2.10809616E-04  3.38196071E-05  6.91402308E-05 -6.41250221E-05
  7.32265813E-04 -1.32116196E-03  2.96602757E-04  4.76460825E-04 -3.96533495E-04
 -3.83827362E-04 -2.10281244E-03  2.70983840E-04  1.76308193E-04  1.16250716E-04
 -3.57975420E-04  3.95116086E-04 -1.54762163E-03  2.68464480E-04  2.97195772E-01
  4.69250195E-01  1.33710756E-02 -7.86823143E-03 -5.84565085E-03  2.79504352E-04
 -5.16957256E-04  6.48049136E-04 -2.72202248E-03 -1.91487173E-04 -3.24056752E-03
  9.97288964E-05 -8.96217526E-04 -1.42629053E-03 -9.29338953E-06 -2.11525047E-04
 -3.21373926E-05 -7.06619625E-05 -6.31295667E-05 -7.30687800E-04 -1.32800756E-03
 -2.85021143E-04 -4.86619820E-04 -3.89774864E-04  3.85774028E-04  2.10905936E-03
 -2.70040117E-04  1.75818169E-04 -1.18079707E-04  3.59097393E-04  4.08232096E-04
  1.54611030E-03 -2.70485709E-04  2.30491859E-06 -3.60780025E-06  7.07761793E-05
 -2.52305215E-04 -1.48596091E-03  1.69277195E-02 -1.29891683E-03 -8.51811937E-08
 -3.16244681E-05 -3.05205555E-05  1.01364058E-06  5.46753561E-04  6.49248820E-04
 -3.75715423E-06 -3.88079848E-03 -4.81575437E-03 -8.97455887E-06 -4.69444073E-03
 -6.14060595E-03  6.04970518E-07 -2.73966925E-04 -1.32214294E-04 -1.67044009E-04
 -2.22908973E-06  5.11385632E-04  1.17503945E-03 -1.19328491E-05  1.96571457E-05
 -1.90843978E-06 -2.43494643E-04 -9.08487819E-04  6.10768325E-06 -1.42480807E-05
 -4.89412325E-05  1.10480893E-04  2.50193404E-04  2.54014961E-03 -4.36010290E-07
 -1.10542866E-04 -7.25688212E-05 -3.06213384E-06 -4.90773506E-04  8.69691472E-04
 -3.15112104E-06 -5.07498715E-04  1.60175038E-03 -2.96847557E-05  5.36486743E-08
 -5.49083017E-06 -8.05325367E-05  7.47841524E-07 -1.17021764E-04 -3.36337033E-06
 -9.01366129E-04 -1.60063405E-04  2.25041960E-06 -1.21640895E-05 -7.51977575E-05
  3.37179414E-04 -9.60860012E-04 -8.06561003E-04  7.22573138E-09  9.37597350E-07
 -1.05461497E-04 -1.78935679E-07  3.16475359E-04  1.48291153E-03  1.80696322E-06
  8.40859501E-04  1.47487667E-03 -1.67532733E-05  1.39528183E-08 -4.37772708E-05
 -6.78454125E-05  5.12328899E-07 -1.07705123E-03  1.26497694E-06  1.20471233E-04
 -3.52528809E-04  2.05085753E-06  2.97198209E-01  4.69235430E-01  1.34737028E-02
 -7.96720671E-03 -5.88969501E-03 -3.41093458E-04 -5.25660614E-04  6.57533773E-04
  3.68656093E-03  2.27189588E-05 -2.88313375E-03  1.92502310E-03  4.89750889E-04
 -4.63437974E-04 -5.09364313E-06  1.40065421E-04 -2.65126431E-05 -1.29184319E-04
  3.57791562E-05  2.11274262E-04  1.34609446E-03  1.30788048E-04 -9.83955847E-04
  3.21511770E-04  4.38944552E-04  2.20902799E-03  8.48796717E-06 -8.51607133E-05
 -1.65078200E-04  3.33644471E-04 -2.91753806E-04  7.85900775E-04 -3.93979573E-04
  2.96092230E-01  4.67489188E-01  1.34236058E-02 -7.93742577E-03 -5.86534307E-03
  3.35671304E-04 -5.26247335E-04  6.55149669E-04 -3.67543661E-03  5.38635411E-05
 -2.86917897E-03 -1.92013165E-03  5.09315346E-04 -4.56596183E-04 -4.94796328E-06
 -1.39419792E-04 -2.51955434E-05 -1.29465684E-04 -3.34718284E-05  2.14774654E-04
 -1.33886213E-03  1.43034566E-04 -9.87133255E-04 -3.03879051E-04  4.37895804E-04
  2.20221940E-03  9.85602386E-06  8.33370793E-05 -1.64980252E-04  3.32130986E-04
  2.97154080E-04  7.77537863E-04 -3.93603134E-04  2.91259601E-06  8.35760267E-07
  5.02525453E-05 -2.76242827E-04  1.31593219E-04  1.99628136E-02 -2.21127415E-04
 -2.20908933E-07 -5.52843701E-05  3.56790275E-05  2.48289570E-06  6.10393996E-04
 -2.95262811E-04 -2.81928493E-05 -7.10065979E-03  5.52426506E-03 -4.64582477E-05
 -1.15709770E-02  5.04542308E-03  1.61339699E-06  3.81632566E-04 -5.42958827E-04
  9.35673159E-04 -6.61405591E-06 -1.72504761E-03 -4.90696914E-04  3.74856342E-06
 -8.13916748E-04  4.60085103E-06  1.19879530E-03 -2.70983852E-04  2.16970861E-06
 -1.31991947E-04 -2.19952717E-04 -8.02863354E-07  7.37676268E-04  7.06647660E-03