 Entering Gaussian System, Link 0=g16
 Initial command:
 /apps/gaussian/g16c01/g16/l1.exe "/jobfs/13928608.gadi-pbs/Gau-378404.inp" -scrdir="/jobfs/13928608.gadi-pbs/"
 Entering Link 1 = /apps/gaussian/g16c01/g16/l1.exe PID=    378405.
  
 Copyright (c) 1988-2019, Gaussian, Inc.  All Rights Reserved.
  
 This is part of the Gaussian(R) 16 program.  It is based on
 the Gaussian(R) 09 system (copyright 2009, Gaussian, Inc.),
 the Gaussian(R) 03 system (copyright 2003, Gaussian, Inc.),
 the Gaussian(R) 98 system (copyright 1998, Gaussian, Inc.),
 the Gaussian(R) 94 system (copyright 1995, Gaussian, Inc.),
 the Gaussian 92(TM) system (copyright 1992, Gaussian, Inc.),
 the Gaussian 90(TM) system (copyright 1990, Gaussian, Inc.),
 the Gaussian 88(TM) system (copyright 1988, Gaussian, Inc.),
 the Gaussian 86(TM) system (copyright 1986, Carnegie Mellon
 University), and the Gaussian 82(TM) system (copyright 1983,
 Carnegie Mellon University). Gaussian is a federally registered
 trademark of Gaussian, Inc.
  
 This software contains proprietary and confidential information,
 including trade secrets, belonging to Gaussian, Inc.
  
 This software is provided under written license and may be
 used, copied, transmitted, or stored only in accord with that
 written license.
  
 The following legend is applicable only to US Government
 contracts under FAR:
  
                    RESTRICTED RIGHTS LEGEND
  
 Use, reproduction and disclosure by the US Government is
 subject to restrictions as set forth in subparagraphs (a)
 and (c) of the Commercial Computer Software - Restricted
 Rights clause in FAR 52.227-19.
  
 Gaussian, Inc.
 340 Quinnipiac St., Bldg. 40, Wallingford CT 06492
  
  
 ---------------------------------------------------------------
 Warning -- This program may not be used in any manner that
 competes with the business of Gaussian, Inc. or will provide
 assistance to any competitor of Gaussian, Inc.  The licensee
 of this program is prohibited from giving any competitor of
 Gaussian, Inc. access to this program.  By using this program,
 the user acknowledges that Gaussian, Inc. is engaged in the
 business of creating and licensing software in the field of
 computational chemistry and represents and warrants to the
 licensee that it is not a competitor of Gaussian, Inc. and that
 it will not use this program in any manner prohibited above.
 ---------------------------------------------------------------
  

 Cite this work as:
 Gaussian 16, Revision C.01,
 M. J. Frisch, G. W. Trucks, H. B. Schlegel, G. E. Scuseria, 
 M. A. Robb, J. R. Cheeseman, G. Scalmani, V. Barone, 
 G. A. Petersson, H. Nakatsuji, X. Li, M. Caricato, A. V. Marenich, 
 J. Bloino, B. G. Janesko, R. Gomperts, B. Mennucci, H. P. Hratchian, 
 J. V. Ortiz, A. F. Izmaylov, J. L. Sonnenberg, D. Williams-Young, 
 F. Ding, F. Lipparini, F. Egidi, J. Goings, B. Peng, A. Petrone, 
 T. Henderson, D. Ranasinghe, V. G. Zakrzewski, J. Gao, N. Rega, 
 G. Zheng, W. Liang, M. Hada, M. Ehara, K. Toyota, R. Fukuda, 
 J. Hasegawa, M. Ishida, T. Nakajima, Y. Honda, O. Kitao, H. Nakai, 
 T. Vreven, K. Throssell, J. A. Montgomery, Jr., J. E. Peralta, 
 F. Ogliaro, M. J. Bearpark, J. J. Heyd, E. N. Brothers, K. N. Kudin, 
 V. N. Staroverov, T. A. Keith, R. Kobayashi, J. Normand, 
 K. Raghavachari, A. P. Rendell, J. C. Burant, S. S. Iyengar, 
 J. Tomasi, M. Cossi, J. M. Millam, M. Klene, C. Adamo, R. Cammi, 
 J. W. Ochterski, R. L. Martin, K. Morokuma, O. Farkas, 
 J. B. Foresman, and D. J. Fox, Gaussian, Inc., Wallingford CT, 2019.
 
 ******************************************
 Gaussian 16:  ES64L-G16RevC.01  3-Jul-2019
                30-Nov-2020 
 ******************************************
 %chk=spec.chk
 %mem=160gb
 %nproc=48
 Will use up to   48 processors via shared memory.
 --------------------------------------------------------
 #P M062X/Gen field=X-8 int=(grid=ultrafine) polar=Dipole
 --------------------------------------------------------
 1/38=1,172=1/1;
 2/12=2,17=6,18=5,40=1/2;
 3/5=7,11=2,14=1,15=-8,25=1,30=1,74=-55,75=-5/1,2,3;
 4//1;
 5/5=2,38=5,98=1/2;
 8/6=4,10=90,11=11/1;
 10/6=1,13=10,17=1/2;
 6/7=2,8=2,9=2,10=2,28=1/1;
 99/5=1,9=1/99;
 Leave Link    1 at Mon Nov 30 17:35:26 2020, MaxMem= 21474836480 cpu:               3.0 elap:               0.1
 (Enter /apps/gaussian/g16c01/g16/l101.exe)
 ---
 dhp
 ---
 Symbolic Z-matrix:
 Charge = -1 Multiplicity = 1
 P                     0.9387    1.01586   0.00735 
 O                    -0.55886   0.98478  -0.00791 
 O                     1.866     0.94671  -1.19053 
 O                     1.4667   -0.20955   1.06658 
 H                     2.3113   -0.46062   0.6465 
 O                     1.41458   2.40255   0.8754 
 H                     2.24958   2.62345   0.42044 
 
 ITRead=  0  0  0  0  0  0  0
 MicOpt= -1 -1 -1 -1 -1 -1 -1
 NAtoms=      7 NQM=        7 NQMF=       0 NMMI=      0 NMMIF=      0
                NMic=       0 NMicF=      0.
                    Isotopes and Nuclear Properties:
 (Nuclear quadrupole moments (NQMom) in fm**2, nuclear magnetic moments (NMagM)
  in nuclear magnetons)

  Atom         1           2           3           4           5           6           7
 IAtWgt=          31          16          16          16           1          16           1
 AtmWgt=  30.9737634  15.9949146  15.9949146  15.9949146   1.0078250  15.9949146   1.0078250
 NucSpn=           1           0           0           0           1           0           1
 AtZEff=  -0.0000000  -0.0000000  -0.0000000  -0.0000000  -0.0000000  -0.0000000  -0.0000000
 NQMom=    0.0000000   0.0000000   0.0000000   0.0000000   0.0000000   0.0000000   0.0000000
 NMagM=    1.1316000   0.0000000   0.0000000   0.0000000   2.7928460   0.0000000   2.7928460
 AtZNuc=  15.0000000   8.0000000   8.0000000   8.0000000   1.0000000   8.0000000   1.0000000
 Leave Link  101 at Mon Nov 30 17:35:26 2020, MaxMem= 21474836480 cpu:               7.5 elap:               0.3
 (Enter /apps/gaussian/g16c01/g16/l202.exe)
                          Input orientation:                          
 ---------------------------------------------------------------------
 Center     Atomic      Atomic             Coordinates (Angstroms)
 Number     Number       Type             X           Y           Z
 ---------------------------------------------------------------------
      1         15           0        0.938700    1.015860    0.007350
      2          8           0       -0.558860    0.984780   -0.007910
      3          8           0        1.866000    0.946710   -1.190530
      4          8           0        1.466700   -0.209550    1.066580
      5          1           0        2.311300   -0.460620    0.646500
      6          8           0        1.414580    2.402550    0.875400
      7          1           0        2.249580    2.623450    0.420440
 ---------------------------------------------------------------------
                    Distance matrix (angstroms):
                    1          2          3          4          5
     1  P    0.000000
     2  O    1.497960   0.000000
     3  O    1.516438   2.698145   0.000000
     4  O    1.703638   2.585314   2.567279   0.000000
     5  H    2.114837   3.279520   2.356597   0.976142   0.000000
     6  O    1.703785   2.585493   2.567356   2.619605   3.009027
     7  H    2.115040   3.279643   2.356653   3.009367   3.092960
                    6          7
     6  O    0.000000
     7  H    0.976223   0.000000
 Stoichiometry    H2O4P(1-)
 Framework group  C1[X(H2O4P)]
 Deg. of freedom    15
 Full point group                 C1      NOp   1
 Largest Abelian subgroup         C1      NOp   1
 Largest concise Abelian subgroup C1      NOp   1
                         Standard orientation:                         
 ---------------------------------------------------------------------
 Center     Atomic      Atomic             Coordinates (Angstroms)
 Number     Number       Type             X           Y           Z
 ---------------------------------------------------------------------
      1         15           0        0.000527    0.116543    0.146306
      2          8           0        0.006674    1.610267    0.258721
      3          8           0       -0.003366   -0.885129    1.284823
      4          8           0        1.308285   -0.328482   -0.850741
      5          1           0        1.541336   -1.195527   -0.467631
      6          8           0       -1.311299   -0.317877   -0.850324
      7          1           0       -1.551598   -1.182846   -0.466793
 ---------------------------------------------------------------------
 Rotational constants (GHZ):           4.5418526           4.5017355           4.1976655
 Leave Link  202 at Mon Nov 30 17:35:27 2020, MaxMem= 21474836480 cpu:               6.1 elap:               0.3
 (Enter /apps/gaussian/g16c01/g16/l301.exe)
 General basis read from cards:  (5D, 7F)
 Centers:       5      7
 S 4 1.00
     Exponent=  3.3685014000D+01 Coefficients=  6.0680000000D-03
     Exponent=  5.0947880000D+00 Coefficients=  4.5316000000D-02
     Exponent=  1.1587860000D+00 Coefficients=  2.0284600000D-01
     Exponent=  3.2584000000D-01 Coefficients=  5.0370900000D-01
 S 1 1.00
     Exponent=  1.0274100000D-01 Coefficients=  1.0000000000D+00
 S 1 1.00
     Exponent=  3.2400000000D-02 Coefficients=  1.0000000000D+00
 P 2 1.00
     Exponent=  1.1588000000D+00 Coefficients=  1.8844000000D-01
     Exponent=  3.2580000000D-01 Coefficients=  8.8242000000D-01
 P 2 1.00
     Exponent=  1.0270000000D-01 Coefficients=  1.1780000000D-01
     Exponent=  3.2400000000D-02 Coefficients=  4.2000000000D-03
 ****
 Centers:       2      3      4      6
 S 5 1.00
     Exponent=  1.0662285000D+04 Coefficients=  7.9900000000D-04
     Exponent=  1.5997097000D+03 Coefficients=  6.1530000000D-03
     Exponent=  3.6472526000D+02 Coefficients=  3.1157000000D-02
     Exponent=  1.0365179000D+02 Coefficients=  1.1559600000D-01
     Exponent=  3.3905805000D+01 Coefficients=  3.0155200000D-01
 S 2 1.00
     Exponent=  1.2287469000D+01 Coefficients=  4.4487000000D-01
     Exponent=  4.7568050000D+00 Coefficients=  2.4317200000D-01
 S 1 1.00
     Exponent=  1.0042710000D+00 Coefficients=  1.0000000000D+00
 S 1 1.00
     Exponent=  3.0068600000D-01 Coefficients=  1.0000000000D+00
 S 1 1.00
     Exponent=  9.0030000000D-02 Coefficients=  1.0000000000D+00
 P 4 1.00
     Exponent=  3.4856463000D+01 Coefficients=  1.5648000000D-02
     Exponent=  7.8431310000D+00 Coefficients=  9.8197000000D-02
     Exponent=  2.3062490000D+00 Coefficients=  3.0776800000D-01
     Exponent=  7.2316400000D-01 Coefficients=  4.9247000000D-01
 P 1 1.00
     Exponent=  2.1488200000D-01 Coefficients=  1.0000000000D+00
 P 1 1.00
     Exponent=  6.3850000000D-02 Coefficients=  1.0000000000D+00
 D 2 1.00
     Exponent=  2.3062000000D+00 Coefficients=  2.0270000000D-01
     Exponent=  7.2320000000D-01 Coefficients=  5.7910000000D-01
 D 2 1.00
     Exponent=  2.1490000000D-01 Coefficients=  7.8545000000D-01
     Exponent=  6.3900000000D-02 Coefficients=  5.3387000000D-01
 ****
 Centers:       1
 S 6 1.00
     Exponent=  7.7492430000D+04 Coefficients=  7.8700000000D-04
     Exponent=  1.1605790000D+04 Coefficients=  6.1090000000D-03
     Exponent=  2.6459600000D+03 Coefficients=  3.1368000000D-02
     Exponent=  7.5498000000D+02 Coefficients=  1.2429100000D-01
     Exponent=  2.4875000000D+02 Coefficients=  3.8068200000D-01
     Exponent=  9.1157000000D+01 Coefficients=  5.5998900000D-01
 S 3 1.00
     Exponent=  9.1157000000D+01 Coefficients=  1.6399700000D-01
     Exponent=  3.6226000000D+01 Coefficients=  6.2592700000D-01
     Exponent=  1.5211000000D+01 Coefficients=  2.6221100000D-01
 S 1 1.00
     Exponent=  4.7138000000D+00 Coefficients=  1.0000000000D+00
 S 1 1.00
     Exponent=  1.7827000000D+00 Coefficients=  1.0000000000D+00
 S 1 1.00
     Exponent=  3.4250000000D-01 Coefficients=  1.0000000000D+00
 S 1 1.00
     Exponent=  1.2460000000D-01 Coefficients=  1.0000000000D+00
 S 1 1.00
     Exponent=  4.5300000000D-02 Coefficients=  1.0000000000D+00
 P 6 1.00
     Exponent=  3.8484000000D+02 Coefficients=  3.7650000000D-03
     Exponent=  9.0552000000D+01 Coefficients=  2.9010000000D-02
     Exponent=  2.8806000000D+01 Coefficients=  1.2295300000D-01
     Exponent=  1.0688000000D+01 Coefficients=  3.0647000000D-01
     Exponent=  4.2521000000D+00 Coefficients=  4.4134900000D-01
     Exponent=  1.7405000000D+00 Coefficients=  2.9581700000D-01
 P 1 1.00
     Exponent=  5.9790000000D-01 Coefficients=  1.0000000000D+00
 P 1 1.00
     Exponent=  2.2920000000D-01 Coefficients=  1.0000000000D+00
 P 1 1.00
     Exponent=  8.3800000000D-02 Coefficients=  1.0000000000D+00
 P 1 1.00
     Exponent=  3.0600000000D-02 Coefficients=  1.0000000000D+00
 D 2 1.00
     Exponent=  5.9790000000D-01 Coefficients=  3.0930000000D-01
     Exponent=  2.2920000000D-01 Coefficients=  9.7150000000D-01
 D 2 1.00
     Exponent=  8.3800000000D-02 Coefficients=  1.2780000000D-01
     Exponent=  3.0600000000D-02 Coefficients=  7.7400000000D-02
 ****
 Ernie: Thresh=  0.10000D-02 Tol=  0.10000D-05 Strict=F.
 The following finite field(s) will be applied:
 An electric field of             -0.0008  0.0000  0.0000
 In input orientation: -1.26773665D-05  7.97759952D-04 -5.84665975D-05
 There are   156 symmetry adapted cartesian basis functions of A   symmetry.
 There are   146 symmetry adapted basis functions of A   symmetry.
   146 basis functions,   312 primitive gaussians,   156 cartesian basis functions
    25 alpha electrons       25 beta electrons
       nuclear repulsion energy       262.2134740329 Hartrees.
 IExCor= 4336 DFT=T Ex+Corr=M062X ExCW=0 ScaHFX=  0.540000
 ScaDFX=  1.000000  1.000000  1.000000  1.000000 ScalE2=  1.000000  1.000000
 IRadAn=      5 IRanWt=     -1 IRanGd=            0 ICorTp=0 IEmpDi=  4
 NAtoms=    7 NActive=    7 NUniq=    7 SFac= 1.00D+00 NAtFMM=   60 NAOKFM=F Big=F
 Integral buffers will be    131072 words long.
 Raffenetti 2 integral format.
 Two-electron integral symmetry is turned on.
 Leave Link  301 at Mon Nov 30 17:35:27 2020, MaxMem= 21474836480 cpu:               5.0 elap:               0.2
 (Enter /apps/gaussian/g16c01/g16/l302.exe)
 NPDir=0 NMtPBC=     1 NCelOv=     1 NCel=       1 NClECP=     1 NCelD=      1
         NCelK=      1 NCelE2=     1 NClLst=     1 CellRange=     0.0.
 One-electron integrals computed using PRISM.
 One-electron integral symmetry used in STVInt
 NBasis=   146 RedAO= T EigKep=  2.42D-04  NBF=   146
 NBsUse=   146 1.00D-06 EigRej= -1.00D+00 NBFU=   146
 Precomputing XC quadrature grid using
 IXCGrd= 4 IRadAn=           5 IRanWt=          -1 IRanGd=           0 AccXCQ= 0.00D+00.
 Generated NRdTot=       0 NPtTot=           0 NUsed=           0 NTot=          32
 NSgBfM=   154   154   154   154   154 MxSgAt=     7 MxSgA2=     7.
 Leave Link  302 at Mon Nov 30 17:35:29 2020, MaxMem= 21474836480 cpu:              49.9 elap:               2.1
 (Enter /apps/gaussian/g16c01/g16/l303.exe)
 DipDrv:  MaxL=1.
 The nuclear repulsion energy is now       262.2134740329 hartrees.
 Leave Link  303 at Mon Nov 30 17:35:30 2020, MaxMem= 21474836480 cpu:               9.4 elap:               0.5
 (Enter /apps/gaussian/g16c01/g16/l401.exe)
 ExpMin= 3.06D-02 ExpMax= 7.75D+04 ExpMxC= 2.65D+03 IAcc=3 IRadAn=         5 AccDes= 0.00D+00
 Harris functional with IExCor= 1009 and IRadAn=       5 diagonalized for initial guess.
 HarFok:  IExCor= 1009 AccDes= 0.00D+00 IRadAn=         5 IDoV= 1 UseB2=F ITyADJ=14
 ICtDFT=  3500011 ScaDFX=  1.000000  1.000000  1.000000  1.000000
 FoFCou: FMM=F IPFlag=           0 FMFlag=      100000 FMFlg1=           0
         NFxFlg=           0 DoJE=T BraDBF=F KetDBF=T FulRan=T
         wScrn=  0.000000 ICntrl=       500 IOpCl=  0 I1Cent=   200000004 NGrid=           0
         NMat0=    1 NMatS0=      1 NMatT0=    0 NMatD0=    1 NMtDS0=    0 NMtDT0=    0
 Petite list used in FoFCou.
 Harris En= -643.550991508335    
 JPrj=0 DoOrth=F DoCkMO=F.
 Leave Link  401 at Mon Nov 30 17:35:30 2020, MaxMem= 21474836480 cpu:              15.6 elap:               0.5
 (Enter /apps/gaussian/g16c01/g16/l502.exe)
 Keep R1 ints in memory in canonical form, NReq=104885708.
 FoFCou: FMM=F IPFlag=           0 FMFlag=           0 FMFlg1=           0
         NFxFlg=           0 DoJE=F BraDBF=F KetDBF=F FulRan=T
         wScrn=  0.000000 ICntrl=       600 IOpCl=  0 I1Cent=           0 NGrid=           0
         NMat0=    1 NMatS0=  10731 NMatT0=    0 NMatD0=    1 NMtDS0=    0 NMtDT0=    0
 Symmetry not used in FoFCou.
 Two-electron integral symmetry not used.
 Closed shell SCF:
 Using DIIS extrapolation, IDIIS=  1040.
 NGot= 21474836480 LenX= 21417196084 LenY= 21417171307
 Requested convergence on RMS density matrix=1.00D-08 within 128 cycles.
 Requested convergence on MAX density matrix=1.00D-06.
 Requested convergence on             energy=1.00D-06.
 No special actions if energy rises.

 Cycle   1  Pass 1  IDiag  1:
 E= -643.255933316232    
 DIIS: error= 4.21D-02 at cycle   1 NSaved=   1.
 NSaved= 1 IEnMin= 1 EnMin= -643.255933316232     IErMin= 1 ErrMin= 4.21D-02
 ErrMax= 4.21D-02  0.00D+00 EMaxC= 1.00D-01 BMatC= 5.11D-01 BMatP= 5.11D-01
 IDIUse=3 WtCom= 5.79D-01 WtEn= 4.21D-01
 Coeff-Com:  0.100D+01
 Coeff-En:   0.100D+01
 Coeff:      0.100D+01
 Gap=     0.273 Goal=   None    Shift=    0.000
 GapD=    0.273 DampG=1.000 DampE=0.500 DampFc=0.5000 IDamp=-1.
 Damping current iteration by 5.00D-01
 RMSDP=1.04D-02 MaxDP=2.99D-01              OVMax= 2.27D-01

 Cycle   2  Pass 1  IDiag  1:
 E= -643.396859641926     Delta-E=       -0.140926325694 Rises=F Damp=T
 DIIS: error= 9.20D-03 at cycle   2 NSaved=   2.
 NSaved= 2 IEnMin= 2 EnMin= -643.396859641926     IErMin= 2 ErrMin= 9.20D-03
 ErrMax= 9.20D-03  0.00D+00 EMaxC= 1.00D-01 BMatC= 2.87D-02 BMatP= 5.11D-01
 IDIUse=3 WtCom= 9.08D-01 WtEn= 9.20D-02
 Coeff-Com:  0.924D-01 0.908D+00
 Coeff-En:   0.208D+00 0.792D+00
 Coeff:      0.103D+00 0.897D+00
 Gap=     0.271 Goal=   None    Shift=    0.000
 RMSDP=1.88D-03 MaxDP=6.77D-02 DE=-1.41D-01 OVMax= 1.42D-01

 Cycle   3  Pass 1  IDiag  1:
 E= -643.603174691054     Delta-E=       -0.206315049127 Rises=F Damp=F
 DIIS: error= 4.82D-03 at cycle   3 NSaved=   3.
 NSaved= 3 IEnMin= 3 EnMin= -643.603174691054     IErMin= 3 ErrMin= 4.82D-03
 ErrMax= 4.82D-03  0.00D+00 EMaxC= 1.00D-01 BMatC= 6.05D-03 BMatP= 2.87D-02
 IDIUse=3 WtCom= 9.52D-01 WtEn= 4.82D-02
 Coeff-Com: -0.715D-02 0.255D+00 0.752D+00
 Coeff-En:   0.000D+00 0.000D+00 0.100D+01
 Coeff:     -0.680D-02 0.243D+00 0.764D+00
 Gap=     0.268 Goal=   None    Shift=    0.000
 RMSDP=8.00D-04 MaxDP=2.54D-02 DE=-2.06D-01 OVMax= 2.32D-02

 Cycle   4  Pass 1  IDiag  1:
 E= -643.605162672634     Delta-E=       -0.001987981580 Rises=F Damp=F
 DIIS: error= 3.09D-03 at cycle   4 NSaved=   4.
 NSaved= 4 IEnMin= 4 EnMin= -643.605162672634     IErMin= 4 ErrMin= 3.09D-03
 ErrMax= 3.09D-03  0.00D+00 EMaxC= 1.00D-01 BMatC= 3.56D-03 BMatP= 6.05D-03
 IDIUse=3 WtCom= 9.69D-01 WtEn= 3.09D-02
 Coeff-Com: -0.148D-01 0.401D-01 0.452D+00 0.522D+00
 Coeff-En:   0.000D+00 0.000D+00 0.375D+00 0.625D+00
 Coeff:     -0.143D-01 0.388D-01 0.450D+00 0.526D+00
 Gap=     0.273 Goal=   None    Shift=    0.000
 RMSDP=3.18D-04 MaxDP=8.90D-03 DE=-1.99D-03 OVMax= 9.16D-03

 Cycle   5  Pass 1  IDiag  1:
 E= -643.607773005136     Delta-E=       -0.002610332502 Rises=F Damp=F
 DIIS: error= 1.80D-04 at cycle   5 NSaved=   5.
 NSaved= 5 IEnMin= 5 EnMin= -643.607773005136     IErMin= 5 ErrMin= 1.80D-04
 ErrMax= 1.80D-04  0.00D+00 EMaxC= 1.00D-01 BMatC= 8.36D-06 BMatP= 3.56D-03
 IDIUse=3 WtCom= 9.98D-01 WtEn= 1.80D-03
 Coeff-Com: -0.102D-02 0.123D-03 0.547D-01 0.879D-01 0.858D+00
 Coeff-En:   0.000D+00 0.000D+00 0.000D+00 0.000D+00 0.100D+01
 Coeff:     -0.102D-02 0.122D-03 0.546D-01 0.877D-01 0.859D+00
 Gap=     0.272 Goal=   None    Shift=    0.000
 RMSDP=4.28D-05 MaxDP=1.01D-03 DE=-2.61D-03 OVMax= 6.97D-04

 Cycle   6  Pass 1  IDiag  1:
 E= -643.607779860889     Delta-E=       -0.000006855754 Rises=F Damp=F
 DIIS: error= 6.39D-05 at cycle   6 NSaved=   6.
 NSaved= 6 IEnMin= 6 EnMin= -643.607779860889     IErMin= 6 ErrMin= 6.39D-05
 ErrMax= 6.39D-05  0.00D+00 EMaxC= 1.00D-01 BMatC= 1.31D-06 BMatP= 8.36D-06
 IDIUse=1 WtCom= 1.00D+00 WtEn= 0.00D+00
 Coeff-Com:  0.202D-03-0.174D-02 0.228D-02 0.118D-01 0.335D+00 0.653D+00
 Coeff:      0.202D-03-0.174D-02 0.228D-02 0.118D-01 0.335D+00 0.653D+00
 Gap=     0.273 Goal=   None    Shift=    0.000
 RMSDP=1.36D-05 MaxDP=5.43D-04 DE=-6.86D-06 OVMax= 2.76D-04

 Cycle   7  Pass 1  IDiag  1:
 E= -643.607780937361     Delta-E=       -0.000001076471 Rises=F Damp=F
 DIIS: error= 2.03D-05 at cycle   7 NSaved=   7.
 NSaved= 7 IEnMin= 7 EnMin= -643.607780937361     IErMin= 7 ErrMin= 2.03D-05
 ErrMax= 2.03D-05  0.00D+00 EMaxC= 1.00D-01 BMatC= 1.37D-07 BMatP= 1.31D-06
 IDIUse=1 WtCom= 1.00D+00 WtEn= 0.00D+00
 Coeff-Com:  0.182D-03-0.739D-03-0.398D-02-0.272D-02 0.738D-01 0.253D+00
 Coeff-Com:  0.681D+00
 Coeff:      0.182D-03-0.739D-03-0.398D-02-0.272D-02 0.738D-01 0.253D+00
 Coeff:      0.681D+00
 Gap=     0.273 Goal=   None    Shift=    0.000
 RMSDP=3.88D-06 MaxDP=1.21D-04 DE=-1.08D-06 OVMax= 1.47D-04

 Cycle   8  Pass 1  IDiag  1:
 E= -643.607781026308     Delta-E=       -0.000000088947 Rises=F Damp=F
 DIIS: error= 1.73D-05 at cycle   8 NSaved=   8.
 NSaved= 8 IEnMin= 8 EnMin= -643.607781026308     IErMin= 8 ErrMin= 1.73D-05
 ErrMax= 1.73D-05  0.00D+00 EMaxC= 1.00D-01 BMatC= 4.77D-08 BMatP= 1.37D-07
 IDIUse=1 WtCom= 1.00D+00 WtEn= 0.00D+00
 Coeff-Com:  0.605D-04-0.209D-04-0.283D-02-0.402D-02-0.270D-01-0.598D-02
 Coeff-Com:  0.391D+00 0.648D+00
 Coeff:      0.605D-04-0.209D-04-0.283D-02-0.402D-02-0.270D-01-0.598D-02
 Coeff:      0.391D+00 0.648D+00
 Gap=     0.273 Goal=   None    Shift=    0.000
 RMSDP=1.69D-06 MaxDP=5.61D-05 DE=-8.89D-08 OVMax= 5.38D-05

 Cycle   9  Pass 1  IDiag  1:
 E= -643.607781066965     Delta-E=       -0.000000040657 Rises=F Damp=F
 DIIS: error= 8.26D-07 at cycle   9 NSaved=   9.
 NSaved= 9 IEnMin= 9 EnMin= -643.607781066965     IErMin= 9 ErrMin= 8.26D-07
 ErrMax= 8.26D-07  0.00D+00 EMaxC= 1.00D-01 BMatC= 3.09D-10 BMatP= 4.77D-08
 IDIUse=1 WtCom= 1.00D+00 WtEn= 0.00D+00
 Coeff-Com: -0.148D-04 0.393D-04 0.769D-04 0.817D-04-0.394D-02-0.103D-01
 Coeff-Com: -0.188D-01 0.131D-01 0.102D+01
 Coeff:     -0.148D-04 0.393D-04 0.769D-04 0.817D-04-0.394D-02-0.103D-01
 Coeff:     -0.188D-01 0.131D-01 0.102D+01
 Gap=     0.273 Goal=   None    Shift=    0.000
 RMSDP=4.12D-07 MaxDP=1.74D-05 DE=-4.07D-08 OVMax= 1.05D-05

 Cycle  10  Pass 1  IDiag  1:
 E= -643.607781067561     Delta-E=       -0.000000000596 Rises=F Damp=F
 DIIS: error= 2.05D-07 at cycle  10 NSaved=  10.
 NSaved=10 IEnMin=10 EnMin= -643.607781067561     IErMin=10 ErrMin= 2.05D-07
 ErrMax= 2.05D-07  0.00D+00 EMaxC= 1.00D-01 BMatC= 2.12D-11 BMatP= 3.09D-10
 IDIUse=1 WtCom= 1.00D+00 WtEn= 0.00D+00
 Coeff-Com: -0.594D-05 0.857D-05 0.145D-03 0.199D-03 0.582D-03-0.947D-03
 Coeff-Com: -0.237D-01-0.331D-01 0.172D+00 0.885D+00
 Coeff:     -0.594D-05 0.857D-05 0.145D-03 0.199D-03 0.582D-03-0.947D-03
 Coeff:     -0.237D-01-0.331D-01 0.172D+00 0.885D+00
 Gap=     0.273 Goal=   None    Shift=    0.000
 RMSDP=8.08D-08 MaxDP=1.77D-06 DE=-5.96D-10 OVMax= 2.32D-06

 Cycle  11  Pass 1  IDiag  1:
 E= -643.607781067595     Delta-E=       -0.000000000033 Rises=F Damp=F
 DIIS: error= 1.46D-07 at cycle  11 NSaved=  11.
 NSaved=11 IEnMin=11 EnMin= -643.607781067595     IErMin=11 ErrMin= 1.46D-07
 ErrMax= 1.46D-07  0.00D+00 EMaxC= 1.00D-01 BMatC= 4.60D-12 BMatP= 2.12D-11
 IDIUse=1 WtCom= 1.00D+00 WtEn= 0.00D+00
 Coeff-Com: -0.117D-05 0.101D-05 0.493D-04 0.654D-04 0.429D-03 0.288D-03
 Coeff-Com: -0.770D-02-0.135D-01 0.383D-02 0.348D+00 0.669D+00
 Coeff:     -0.117D-05 0.101D-05 0.493D-04 0.654D-04 0.429D-03 0.288D-03
 Coeff:     -0.770D-02-0.135D-01 0.383D-02 0.348D+00 0.669D+00
 Gap=     0.273 Goal=   None    Shift=    0.000
 RMSDP=1.93D-08 MaxDP=6.62D-07 DE=-3.32D-11 OVMax= 5.96D-07

 Cycle  12  Pass 1  IDiag  1:
 E= -643.607781067595     Delta-E=       -0.000000000001 Rises=F Damp=F
 DIIS: error= 6.61D-08 at cycle  12 NSaved=  12.
 NSaved=12 IEnMin=12 EnMin= -643.607781067595     IErMin=12 ErrMin= 6.61D-08
 ErrMax= 6.61D-08  0.00D+00 EMaxC= 1.00D-01 BMatC= 9.54D-13 BMatP= 4.60D-12
 IDIUse=1 WtCom= 1.00D+00 WtEn= 0.00D+00
 Coeff-Com:  0.874D-06-0.149D-05-0.797D-05-0.136D-04 0.785D-04 0.362D-03
 Coeff-Com:  0.164D-02 0.848D-03-0.386D-01-0.217D-01 0.327D+00 0.731D+00
 Coeff:      0.874D-06-0.149D-05-0.797D-05-0.136D-04 0.785D-04 0.362D-03
 Coeff:      0.164D-02 0.848D-03-0.386D-01-0.217D-01 0.327D+00 0.731D+00
 Gap=     0.273 Goal=   None    Shift=    0.000
 RMSDP=9.29D-09 MaxDP=2.39D-07 DE=-9.09D-13 OVMax= 2.61D-07

 SCF Done:  E(RM062X) =  -643.607781068     A.U. after   12 cycles
            NFock= 12  Conv=0.93D-08     -V/T= 2.0042
 KE= 6.408969470281D+02 PE=-2.060825777540D+03 EE= 5.141075754114D+02
 Leave Link  502 at Mon Nov 30 17:35:35 2020, MaxMem= 21474836480 cpu:             151.5 elap:               5.0
 (Enter /apps/gaussian/g16c01/g16/l801.exe)
 DoSCS=F DFT=T ScalE2(SS,OS)=  1.000000  1.000000
 Range of M.O.s used for correlation:     1   146
 NBasis=   146 NAE=    25 NBE=    25 NFC=     0 NFV=     0
 NROrb=    146 NOA=    25 NOB=    25 NVA=   121 NVB=   121

 **** Warning!!: The largest alpha MO coefficient is  0.14601459D+02

 Leave Link  801 at Mon Nov 30 17:35:35 2020, MaxMem= 21474836480 cpu:               3.0 elap:               0.3
 (Enter /apps/gaussian/g16c01/g16/l1002.exe)
 Minotr:  Closed shell wavefunction.
          Direct CPHF calculation.
          Differentiating once with respect to electric field.
                with respect to dipole field.
          Electric field/nuclear overlap derivatives assumed to be zero.
          Requested convergence is 1.0D-08 RMS, and 1.0D-07 maximum.
          Secondary convergence is 1.0D-12 RMS, and 1.0D-12 maximum.
          NewPWx=F KeepS1=T KeepF1=T KeepIn=T MapXYZ=F SortEE=F KeepMc=T.
         2164 words used for storage of precomputed grid.
 Keep R1 ints in memory in canonical form, NReq=104735707.
 FoFCou: FMM=F IPFlag=           0 FMFlag=           0 FMFlg1=           0
         NFxFlg=           0 DoJE=F BraDBF=F KetDBF=F FulRan=T
         wScrn=  0.000000 ICntrl=       600 IOpCl=  0 I1Cent=           0 NGrid=           0
         NMat0=    1 NMatS0=  10731 NMatT0=    0 NMatD0=    1 NMtDS0=    0 NMtDT0=    0
 Symmetry not used in FoFCou.
 Two-electron integral symmetry not used.
          MDV=   21474836480 using IRadAn=       1.
          Solving linear equations simultaneously, MaxMat=       0.
          There are     3 degrees of freedom in the 1st order CPHF.  IDoFFX=0 NUNeed=     3.
      3 vectors produced by pass  0 Test12= 1.01D-13 3.33D-08 XBig12= 2.16D+01 1.21D+00.
 AX will form     3 AO Fock derivatives at one time.
      3 vectors produced by pass  1 Test12= 1.01D-13 3.33D-08 XBig12= 5.70D+00 5.60D-01.
      3 vectors produced by pass  2 Test12= 1.01D-13 3.33D-08 XBig12= 1.18D+00 1.75D-01.
      3 vectors produced by pass  3 Test12= 1.01D-13 3.33D-08 XBig12= 1.04D-01 5.34D-02.
      3 vectors produced by pass  4 Test12= 1.01D-13 3.33D-08 XBig12= 1.59D-02 2.20D-02.
      3 vectors produced by pass  5 Test12= 1.01D-13 3.33D-08 XBig12= 1.06D-03 8.96D-03.
      3 vectors produced by pass  6 Test12= 1.01D-13 3.33D-08 XBig12= 5.05D-05 1.80D-03.
      3 vectors produced by pass  7 Test12= 1.01D-13 3.33D-08 XBig12= 2.14D-06 3.31D-04.
      3 vectors produced by pass  8 Test12= 1.01D-13 3.33D-08 XBig12= 3.60D-08 3.12D-05.
      3 vectors produced by pass  9 Test12= 1.01D-13 3.33D-08 XBig12= 5.95D-10 4.55D-06.
      3 vectors produced by pass 10 Test12= 1.01D-13 3.33D-08 XBig12= 1.76D-11 6.97D-07.
      3 vectors produced by pass 11 Test12= 1.01D-13 3.33D-08 XBig12= 4.95D-13 1.09D-07.
 InvSVY:  IOpt=1 It=  1 EMax= 1.29D-15
 Solved reduced A of dimension    36 with     3 vectors.
 FullF1:  Do perturbations      1 to       3.
 SCF Polarizability for W=    0.000000:
                1             2             3 
      1  0.447473D+02
      2  0.180722D-01  0.474795D+02
      3 -0.498634D-02 -0.347643D+00  0.431445D+02
 Isotropic polarizability for W=    0.000000       45.12 Bohr**3.
 SCF Static Hyperpolarizability:
 K=  1 block:
                1 
      1 -0.111093D+02
 K=  2 block:
                1             2 
      1 -0.664356D+01
      2 -0.380916D+01 -0.567142D+02
 K=  3 block:
                1             2             3 
      1  0.515826D+01
      2 -0.530526D+00 -0.136258D+02
      3 -0.371820D+01  0.547956D+01 -0.899655D+01
 End of Minotr F.D. properties file   721 does not exist.
 End of Minotr F.D. properties file   722 does not exist.
 End of Minotr F.D. properties file   788 does not exist.
 Leave Link 1002 at Mon Nov 30 17:35:42 2020, MaxMem= 21474836480 cpu:             251.8 elap:               6.7
 (Enter /apps/gaussian/g16c01/g16/l601.exe)
 Copying SCF densities to generalized density rwf, IOpCl= 0 IROHF=0.

 **********************************************************************

            Population analysis using the SCF Density.

 **********************************************************************

 Orbital symmetries:
       Occupied  (A) (A) (A) (A) (A) (A) (A) (A) (A) (A) (A) (A)
                 (A) (A) (A) (A) (A) (A) (A) (A) (A) (A) (A) (A)
                 (A)
       Virtual   (A) (A) (A) (A) (A) (A) (A) (A) (A) (A) (A) (A)
                 (A) (A) (A) (A) (A) (A) (A) (A) (A) (A) (A) (A)
                 (A) (A) (A) (A) (A) (A) (A) (A) (A) (A) (A) (A)
                 (A) (A) (A) (A) (A) (A) (A) (A) (A) (A) (A) (A)
                 (A) (A) (A) (A) (A) (A) (A) (A) (A) (A) (A) (A)
                 (A) (A) (A) (A) (A) (A) (A) (A) (A) (A) (A) (A)
                 (A) (A) (A) (A) (A) (A) (A) (A) (A) (A) (A) (A)
                 (A) (A) (A) (A) (A) (A) (A) (A) (A) (A) (A) (A)
                 (A) (A) (A) (A) (A) (A) (A) (A) (A) (A) (A) (A)
                 (A) (A) (A) (A) (A) (A) (A) (A) (A) (A) (A) (A)
                 (A)
 The electronic state is 1-A.
 Alpha  occ. eigenvalues --  -78.01218 -19.47451 -19.47242 -19.40786 -19.39864
 Alpha  occ. eigenvalues --   -6.78295  -4.90166  -4.90100  -4.89904  -0.99813
 Alpha  occ. eigenvalues --   -0.94717  -0.89247  -0.86711  -0.48084  -0.40338
 Alpha  occ. eigenvalues --   -0.37384  -0.33119  -0.32219  -0.26545  -0.25535
 Alpha  occ. eigenvalues --   -0.22754  -0.20130  -0.18052  -0.17368  -0.16300
 Alpha virt. eigenvalues --    0.10958   0.12947   0.15184   0.15591   0.16896
 Alpha virt. eigenvalues --    0.18344   0.19227   0.19941   0.22152   0.24911
 Alpha virt. eigenvalues --    0.27099   0.29870   0.31576   0.32054   0.32262
 Alpha virt. eigenvalues --    0.33126   0.33483   0.34291   0.34991   0.35468
 Alpha virt. eigenvalues --    0.36450   0.36701   0.38368   0.38507   0.39311
 Alpha virt. eigenvalues --    0.39513   0.40349   0.42843   0.43582   0.45508
 Alpha virt. eigenvalues --    0.46679   0.49714   0.52007   0.53033   0.55267
 Alpha virt. eigenvalues --    0.56234   0.56961   0.57227   0.60636   0.60683
 Alpha virt. eigenvalues --    0.63767   0.64821   0.72018   0.72596   0.76016
 Alpha virt. eigenvalues --    0.77016   0.77415   0.81614   0.82658   0.83445
 Alpha virt. eigenvalues --    0.84061   0.86753   0.88046   0.90925   0.91096
 Alpha virt. eigenvalues --    0.91639   0.94234   0.96989   0.98819   1.00519
 Alpha virt. eigenvalues --    1.02162   1.03483   1.03723   1.03952   1.10598
 Alpha virt. eigenvalues --    1.10808   1.15151   1.16630   1.20868   1.21261
 Alpha virt. eigenvalues --    1.26282   1.28020   1.30307   1.30399   1.34340
 Alpha virt. eigenvalues --    1.34928   1.37279   1.47142   1.53316   1.59615
 Alpha virt. eigenvalues --    1.61226   1.61613   1.63230   1.68795   1.73379
 Alpha virt. eigenvalues --    1.77828   1.81697   1.88327   1.92415   2.00099
 Alpha virt. eigenvalues --    2.01875   2.29669   2.30419   2.42700   2.48137
 Alpha virt. eigenvalues --    2.62189   2.62195   2.64265   2.69777   2.70032
 Alpha virt. eigenvalues --    2.73145   2.73631   2.74612   2.77541   2.78175
 Alpha virt. eigenvalues --    2.78824   2.88114   2.89724   2.92170   2.99684
 Alpha virt. eigenvalues --    3.15743   3.21398   3.33887   3.45242   3.47378
 Alpha virt. eigenvalues --    7.39522  42.91464  42.94784  43.13865  43.20984
 Alpha virt. eigenvalues --  164.48689
          Condensed to atoms (all electrons):
               1          2          3          4          5          6
     1  P   14.687175  -0.563361  -0.361457   0.080573  -0.075520   0.077350
     2  O   -0.563361   9.163396   0.084808  -0.034104   0.002711  -0.033538
     3  O   -0.361457   0.084808   8.919164   0.048831  -0.006017   0.049262
     4  O    0.080573  -0.034104   0.048831   7.936830   0.107375  -0.092907
     5  H   -0.075520   0.002711  -0.006017   0.107375   1.346684   0.006941
     6  O    0.077350  -0.033538   0.049262  -0.092907   0.006941   7.944282
     7  H   -0.074760   0.002980  -0.005178   0.006736   0.000281   0.103698
               7
     1  P   -0.074760
     2  O    0.002980
     3  O   -0.005178
     4  O    0.006736
     5  H    0.000281
     6  O    0.103698
     7  H    1.353062
 Mulliken charges:
               1
     1  P    1.230000
     2  O   -0.622892
     3  O   -0.729413
     4  O   -0.053334
     5  H   -0.382454
     6  O   -0.055089
     7  H   -0.386818
 Sum of Mulliken charges =  -1.00000
 Mulliken charges with hydrogens summed into heavy atoms:
               1
     1  P    1.230000
     2  O   -0.622892
     3  O   -0.729413
     4  O   -0.435788
     6  O   -0.441907
 Electronic spatial extent (au):  <R**2>=            419.5164
 Charge=             -1.0000 electrons
 Dipole moment (field-independent basis, Debye):
    X=              0.0770    Y=             -3.3499    Z=             -1.2890  Tot=              3.5901
 Quadrupole moment (field-independent basis, Debye-Ang):
   XX=            -40.0285   YY=            -44.5631   ZZ=            -47.2814
   XY=             -0.0328   XZ=             -0.0069   YZ=              2.4866
 Traceless Quadrupole moment (field-independent basis, Debye-Ang):
   XX=              3.9292   YY=             -0.6054   ZZ=             -3.3238
   XY=             -0.0328   XZ=             -0.0069   YZ=              2.4866
 Octapole moment (field-independent basis, Debye-Ang**2):
  XXX=              0.3253  YYY=            -19.2888  ZZZ=             -5.7841  XYY=              0.1245
  XXY=             -7.5199  XXZ=              5.2707  XZZ=              0.1603  YZZ=              6.0301
  YYZ=             -8.8010  XYZ=             -0.0462
 Hexadecapole moment (field-independent basis, Debye-Ang**3):
 XXXX=           -186.8129 YYYY=           -209.1424 ZZZZ=           -182.1292 XXXY=              0.0254
 XXXZ=             -0.1715 YYYX=             -0.2153 YYYZ=              4.1396 ZZZX=              0.0029
 ZZZY=              5.3826 XXYY=            -50.8810 XXZZ=            -65.7627 YYZZ=            -65.1273
 XXYZ=              2.6061 YYXZ=              0.0029 ZZXY=             -0.0462
 N-N= 2.622134740329D+02 E-N=-2.060825777522D+03  KE= 6.408969470281D+02
  Exact polarizability:      44.747       0.018      47.479      -0.005      -0.348      43.145
 Approx polarizability:      47.937       0.049      54.991      -0.017      -2.035      48.293
 No NMR shielding tensors so no spin-rotation constants.
 Leave Link  601 at Mon Nov 30 17:35:44 2020, MaxMem= 21474836480 cpu:              47.2 elap:               2.0
 (Enter /apps/gaussian/g16c01/g16/l9999.exe)

 ----------------------------------------------------------------------

 Electric dipole moment (input orientation):
 (Debye = 10**-18 statcoulomb cm , SI units = C m)
                  (au)            (Debye)         (10**-30 SI)
   Tot        0.141247D+01      0.359014D+01      0.119754D+02
   x          0.134775D+01      0.342565D+01      0.114267D+02
   y          0.219618D-01      0.558214D-01      0.186200D+00
   z          0.422075D+00      0.107281D+01      0.357850D+01

 Dipole polarizability, Alpha (input orientation).
 (esu units = cm**3 , SI units = C**2 m**2 J**-1)
 Alpha(0;0):
               (au)            (10**-24 esu)      (10**-40 SI)
   iso        0.451237D+02      0.668665D+01      0.743990D+01
   aniso      0.384399D+01      0.569621D+00      0.633788D+00
   xx         0.474168D+02      0.702645D+01      0.781798D+01
   yx         0.146278D-01      0.216762D-02      0.241180D-02
   yy         0.447379D+02      0.662948D+01      0.737629D+01
   zx        -0.621677D+00     -0.921230D-01     -0.102501D+00
   zy        -0.128210D+00     -0.189987D-01     -0.211389D-01
   zz         0.432165D+02      0.640403D+01      0.712544D+01

 First dipole hyperpolarizability, Beta (input orientation).
 ||, _|_  parallel and perpendicular components, (z) with respect to z axis,
 vector components x,y,z.  Values do not include the 1/n! factor of 1/2.
 (esu units = statvolt**-1 cm**4 , SI units = C**3 m**3 J**-2)
 Beta(0;0,0):
               (au)            (10**-30 esu)      (10**-50 SI)
   || (z)     0.737557D+01      0.637192D-01      0.236487D-01
   _|_(z)     0.245852D+01      0.212397D-01      0.788291D-02
   x          0.175699D+03      0.151790D+01      0.563353D+00
   y          0.615617D+02      0.531845D+00      0.197389D+00
   z          0.368778D+02      0.318596D+00      0.118244D+00
   ||         0.379578D+02      0.327926D+00      0.121706D+00
   xxx        0.586884D+02      0.507022D+00      0.188176D+00
   xxy        0.526715D+01      0.455041D-01      0.168884D-01
   yxy        0.630165D+01      0.544413D-01      0.202054D-01
   yyy        0.101670D+02      0.878349D-01      0.325991D-01
   xxz        0.881723D+01      0.761740D-01      0.282712D-01
   yxz       -0.175281D+00     -0.151429D-02     -0.562013D-03
   yyz       -0.570581D+01     -0.492938D-01     -0.182949D-01
   zxz       -0.642381D+01     -0.554967D-01     -0.205971D-01
   zyz        0.508641D+01      0.439426D-01      0.163089D-01
   zzz        0.918120D+01      0.793184D-01      0.294382D-01

 ----------------------------------------------------------------------

 Dipole orientation:
    15          0.49522322          1.89886120          1.72660983
     8         -0.32277369          1.87291402         -0.98323626
     8          3.18062866          1.78339102          2.72020235
     8         -1.08992698         -0.45891721          3.24080057
     1          0.15019133         -0.93917091          4.51914365
     8         -0.83103652          4.48306000          3.11561325
     1          0.45636314          4.89576641          4.37081742

 Electric dipole moment (dipole orientation):
 (Debye = 10**-18 statcoulomb cm , SI units = C m)
                  (au)            (Debye)         (10**-30 SI)
   Tot        0.141247D+01      0.359014D+01      0.119754D+02
   x          0.000000D+00      0.000000D+00      0.000000D+00
   y          0.000000D+00      0.000000D+00      0.000000D+00
   z          0.141247D+01      0.359014D+01      0.119754D+02

 Dipole polarizability, Alpha (dipole orientation).
 (esu units = cm**3 , SI units = C**2 m**2 J**-1)
 Alpha(0;0):
               (au)            (10**-24 esu)      (10**-40 SI)
   iso        0.451237D+02      0.668665D+01      0.743990D+01
   aniso      0.384399D+01      0.569621D+00      0.633788D+00
   xx         0.439441D+02      0.651184D+01      0.724540D+01
   yx         0.910573D-01      0.134933D-01      0.150133D-01
   yy         0.447413D+02      0.662998D+01      0.737685D+01
   zx         0.171083D+01      0.253518D+00      0.282077D+00
   zy        -0.351052D-01     -0.520206D-02     -0.578807D-02
   zz         0.466858D+02      0.691813D+01      0.769745D+01

 First dipole hyperpolarizability, Beta (dipole orientation).
 ||, _|_  parallel and perpendicular components, (z) with respect to z axis,
 vector components x,y,z.  Values do not include the 1/n! factor of 1/2.
 (esu units = statvolt**-1 cm**4 , SI units = C**3 m**3 J**-2)
 Beta(0;0,0):
               (au)            (10**-30 esu)      (10**-50 SI)
   || (z)     0.359251D+02      0.310365D+00      0.115189D+00
   _|_(z)     0.119750D+02      0.103455D+00      0.383963D-01
   x          0.166438D+02      0.143789D+00      0.533659D-01
   y          0.589698D+02      0.509454D+00      0.189079D+00
   z          0.179626D+03      0.155183D+01      0.575945D+00
   ||         0.379578D+02      0.327926D+00      0.121706D+00
   xxx       -0.140856D+02     -0.121688D+00     -0.451635D-01
   xxy        0.489872D+01      0.423211D-01      0.157071D-01
   yxy        0.732386D+01      0.632724D-01      0.234829D-01
   yyy        0.102169D+02      0.882664D-01      0.327592D-01
   xxz       -0.147159D+01     -0.127134D-01     -0.471846D-02
   yxz        0.511352D-01      0.441769D-03      0.163958D-03
   yyz        0.431835D+01      0.373072D-01      0.138462D-01
   zxz        0.123097D+02      0.106346D+00      0.394692D-01
   zyz        0.454095D+01      0.392303D-01      0.145599D-01
   zzz        0.570285D+02      0.492681D+00      0.182854D+00

 ----------------------------------------------------------------------
 Unable to Open any file for archive entry.
 1\1\GINC-GADI-CPU-CLX-2659\SP\RM062X\Gen\H2O4P1(1-)\TM3124\30-Nov-2020
 \0\\#P M062X/Gen field=X-8 int=(grid=ultrafine) polar=Dipole\\dhp\\-1,
 1\P,0,0.9387,1.01586,0.00735\O,0,-0.55886,0.98478,-0.00791\O,0,1.866,0
 .94671,-1.19053\O,0,1.4667,-0.20955,1.06658\H,0,2.3113,-0.46062,0.6465
 \O,0,1.41458,2.40255,0.8754\H,0,2.24958,2.62345,0.42044\\Version=ES64L
 -G16RevC.01\State=1-A\HF=-643.6077811\RMSD=9.289e-09\Dipole=1.3477527,
 0.0219618,0.4220753\Polar=47.4168121,0.0146278,44.7379328,-0.6216767,-
 0.1282097,43.2165037\HyperPolar=58.6883842,5.2671532,6.3016459,10.1669
 947,8.8172287,-0.1752807,-5.7058131,-6.4238098,5.0864075,9.1811964\Qua
 drupole=-0.2227309,2.8931012,-2.6703702,0.0503786,1.7066834,-0.3862092
 \PG=C01 [X(H2O4P1)]\\@
 The archive entry for this job was punched.


 ... A MOLECULAR SYSTEM ... (PASSES) ... FROM ONE STATE OF EQUILIBRIUM 
 TO ANOTHER ... BY MEANS OF ALL POSSIBLE INTERMEDIATE PATHS, 
 BUT THE PATH MOST ECONOMICAL OF ENERGY WILL BE THE MORE OFTEN TRAVELED.

                      -- HENRY EYRING, 1945
 Job cpu time:       0 days  0 hours  9 minutes 17.3 seconds.
 Elapsed time:       0 days  0 hours  0 minutes 18.5 seconds.
 File lengths (MBytes):  RWF=     15 Int=      0 D2E=      0 Chk=      3 Scr=      1
 Normal termination of Gaussian 16 at Mon Nov 30 17:35:45 2020.
