 Entering Gaussian System, Link 0=g16
 Initial command:
 /apps/gaussian/g16c01/g16/l1.exe "/jobfs/13928610.gadi-pbs/Gau-1104760.inp" -scrdir="/jobfs/13928610.gadi-pbs/"
 Entering Link 1 = /apps/gaussian/g16c01/g16/l1.exe PID=   1104761.
  
 Copyright (c) 1988-2019, Gaussian, Inc.  All Rights Reserved.
  
 This is part of the Gaussian(R) 16 program.  It is based on
 the Gaussian(R) 09 system (copyright 2009, Gaussian, Inc.),
 the Gaussian(R) 03 system (copyright 2003, Gaussian, Inc.),
 the Gaussian(R) 98 system (copyright 1998, Gaussian, Inc.),
 the Gaussian(R) 94 system (copyright 1995, Gaussian, Inc.),
 the Gaussian 92(TM) system (copyright 1992, Gaussian, Inc.),
 the Gaussian 90(TM) system (copyright 1990, Gaussian, Inc.),
 the Gaussian 88(TM) system (copyright 1988, Gaussian, Inc.),
 the Gaussian 86(TM) system (copyright 1986, Carnegie Mellon
 University), and the Gaussian 82(TM) system (copyright 1983,
 Carnegie Mellon University). Gaussian is a federally registered
 trademark of Gaussian, Inc.
  
 This software contains proprietary and confidential information,
 including trade secrets, belonging to Gaussian, Inc.
  
 This software is provided under written license and may be
 used, copied, transmitted, or stored only in accord with that
 written license.
  
 The following legend is applicable only to US Government
 contracts under FAR:
  
                    RESTRICTED RIGHTS LEGEND
  
 Use, reproduction and disclosure by the US Government is
 subject to restrictions as set forth in subparagraphs (a)
 and (c) of the Commercial Computer Software - Restricted
 Rights clause in FAR 52.227-19.
  
 Gaussian, Inc.
 340 Quinnipiac St., Bldg. 40, Wallingford CT 06492
  
  
 ---------------------------------------------------------------
 Warning -- This program may not be used in any manner that
 competes with the business of Gaussian, Inc. or will provide
 assistance to any competitor of Gaussian, Inc.  The licensee
 of this program is prohibited from giving any competitor of
 Gaussian, Inc. access to this program.  By using this program,
 the user acknowledges that Gaussian, Inc. is engaged in the
 business of creating and licensing software in the field of
 computational chemistry and represents and warrants to the
 licensee that it is not a competitor of Gaussian, Inc. and that
 it will not use this program in any manner prohibited above.
 ---------------------------------------------------------------
  

 Cite this work as:
 Gaussian 16, Revision C.01,
 M. J. Frisch, G. W. Trucks, H. B. Schlegel, G. E. Scuseria, 
 M. A. Robb, J. R. Cheeseman, G. Scalmani, V. Barone, 
 G. A. Petersson, H. Nakatsuji, X. Li, M. Caricato, A. V. Marenich, 
 J. Bloino, B. G. Janesko, R. Gomperts, B. Mennucci, H. P. Hratchian, 
 J. V. Ortiz, A. F. Izmaylov, J. L. Sonnenberg, D. Williams-Young, 
 F. Ding, F. Lipparini, F. Egidi, J. Goings, B. Peng, A. Petrone, 
 T. Henderson, D. Ranasinghe, V. G. Zakrzewski, J. Gao, N. Rega, 
 G. Zheng, W. Liang, M. Hada, M. Ehara, K. Toyota, R. Fukuda, 
 J. Hasegawa, M. Ishida, T. Nakajima, Y. Honda, O. Kitao, H. Nakai, 
 T. Vreven, K. Throssell, J. A. Montgomery, Jr., J. E. Peralta, 
 F. Ogliaro, M. J. Bearpark, J. J. Heyd, E. N. Brothers, K. N. Kudin, 
 V. N. Staroverov, T. A. Keith, R. Kobayashi, J. Normand, 
 K. Raghavachari, A. P. Rendell, J. C. Burant, S. S. Iyengar, 
 J. Tomasi, M. Cossi, J. M. Millam, M. Klene, C. Adamo, R. Cammi, 
 J. W. Ochterski, R. L. Martin, K. Morokuma, O. Farkas, 
 J. B. Foresman, and D. J. Fox, Gaussian, Inc., Wallingford CT, 2019.
 
 ******************************************
 Gaussian 16:  ES64L-G16RevC.01  3-Jul-2019
                30-Nov-2020 
 ******************************************
 %chk=spec.chk
 %mem=160gb
 %nproc=48
 Will use up to   48 processors via shared memory.
 --------------------------------------------------------
 #P M062X/Gen field=X+8 int=(grid=ultrafine) polar=Dipole
 --------------------------------------------------------
 1/38=1,172=1/1;
 2/12=2,17=6,18=5,40=1/2;
 3/5=7,11=2,14=1,15=8,25=1,30=1,74=-55,75=-5/1,2,3;
 4//1;
 5/5=2,38=5,98=1/2;
 8/6=4,10=90,11=11/1;
 10/6=1,13=10,17=1/2;
 6/7=2,8=2,9=2,10=2,28=1/1;
 99/5=1,9=1/99;
 Leave Link    1 at Mon Nov 30 17:35:26 2020, MaxMem= 21474836480 cpu:               2.9 elap:               0.1
 (Enter /apps/gaussian/g16c01/g16/l101.exe)
 ---
 dhp
 ---
 Symbolic Z-matrix:
 Charge = -1 Multiplicity = 1
 P                     0.9387    1.01586   0.00735 
 O                    -0.55886   0.98478  -0.00791 
 O                     1.866     0.94671  -1.19053 
 O                     1.4667   -0.20955   1.06658 
 H                     2.3113   -0.46062   0.6465 
 O                     1.41458   2.40255   0.8754 
 H                     2.24958   2.62345   0.42044 
 
 ITRead=  0  0  0  0  0  0  0
 MicOpt= -1 -1 -1 -1 -1 -1 -1
 NAtoms=      7 NQM=        7 NQMF=       0 NMMI=      0 NMMIF=      0
                NMic=       0 NMicF=      0.
                    Isotopes and Nuclear Properties:
 (Nuclear quadrupole moments (NQMom) in fm**2, nuclear magnetic moments (NMagM)
  in nuclear magnetons)

  Atom         1           2           3           4           5           6           7
 IAtWgt=          31          16          16          16           1          16           1
 AtmWgt=  30.9737634  15.9949146  15.9949146  15.9949146   1.0078250  15.9949146   1.0078250
 NucSpn=           1           0           0           0           1           0           1
 AtZEff=  -0.0000000  -0.0000000  -0.0000000  -0.0000000  -0.0000000  -0.0000000  -0.0000000
 NQMom=    0.0000000   0.0000000   0.0000000   0.0000000   0.0000000   0.0000000   0.0000000
 NMagM=    1.1316000   0.0000000   0.0000000   0.0000000   2.7928460   0.0000000   2.7928460
 AtZNuc=  15.0000000   8.0000000   8.0000000   8.0000000   1.0000000   8.0000000   1.0000000
 Leave Link  101 at Mon Nov 30 17:35:26 2020, MaxMem= 21474836480 cpu:               5.1 elap:               0.3
 (Enter /apps/gaussian/g16c01/g16/l202.exe)
                          Input orientation:                          
 ---------------------------------------------------------------------
 Center     Atomic      Atomic             Coordinates (Angstroms)
 Number     Number       Type             X           Y           Z
 ---------------------------------------------------------------------
      1         15           0        0.938700    1.015860    0.007350
      2          8           0       -0.558860    0.984780   -0.007910
      3          8           0        1.866000    0.946710   -1.190530
      4          8           0        1.466700   -0.209550    1.066580
      5          1           0        2.311300   -0.460620    0.646500
      6          8           0        1.414580    2.402550    0.875400
      7          1           0        2.249580    2.623450    0.420440
 ---------------------------------------------------------------------
                    Distance matrix (angstroms):
                    1          2          3          4          5
     1  P    0.000000
     2  O    1.497960   0.000000
     3  O    1.516438   2.698145   0.000000
     4  O    1.703638   2.585314   2.567279   0.000000
     5  H    2.114837   3.279520   2.356597   0.976142   0.000000
     6  O    1.703785   2.585493   2.567356   2.619605   3.009027
     7  H    2.115040   3.279643   2.356653   3.009367   3.092960
                    6          7
     6  O    0.000000
     7  H    0.976223   0.000000
 Stoichiometry    H2O4P(1-)
 Framework group  C1[X(H2O4P)]
 Deg. of freedom    15
 Full point group                 C1      NOp   1
 Largest Abelian subgroup         C1      NOp   1
 Largest concise Abelian subgroup C1      NOp   1
                         Standard orientation:                         
 ---------------------------------------------------------------------
 Center     Atomic      Atomic             Coordinates (Angstroms)
 Number     Number       Type             X           Y           Z
 ---------------------------------------------------------------------
      1         15           0        0.000527    0.116543    0.146306
      2          8           0        0.006674    1.610267    0.258721
      3          8           0       -0.003366   -0.885129    1.284823
      4          8           0        1.308285   -0.328482   -0.850741
      5          1           0        1.541336   -1.195527   -0.467631
      6          8           0       -1.311299   -0.317877   -0.850324
      7          1           0       -1.551598   -1.182846   -0.466793
 ---------------------------------------------------------------------
 Rotational constants (GHZ):           4.5418526           4.5017355           4.1976655
 Leave Link  202 at Mon Nov 30 17:35:27 2020, MaxMem= 21474836480 cpu:               4.6 elap:               0.3
 (Enter /apps/gaussian/g16c01/g16/l301.exe)
 General basis read from cards:  (5D, 7F)
 Centers:       5      7
 S 4 1.00
     Exponent=  3.3685014000D+01 Coefficients=  6.0680000000D-03
     Exponent=  5.0947880000D+00 Coefficients=  4.5316000000D-02
     Exponent=  1.1587860000D+00 Coefficients=  2.0284600000D-01
     Exponent=  3.2584000000D-01 Coefficients=  5.0370900000D-01
 S 1 1.00
     Exponent=  1.0274100000D-01 Coefficients=  1.0000000000D+00
 S 1 1.00
     Exponent=  3.2400000000D-02 Coefficients=  1.0000000000D+00
 P 2 1.00
     Exponent=  1.1588000000D+00 Coefficients=  1.8844000000D-01
     Exponent=  3.2580000000D-01 Coefficients=  8.8242000000D-01
 P 2 1.00
     Exponent=  1.0270000000D-01 Coefficients=  1.1780000000D-01
     Exponent=  3.2400000000D-02 Coefficients=  4.2000000000D-03
 ****
 Centers:       2      3      4      6
 S 5 1.00
     Exponent=  1.0662285000D+04 Coefficients=  7.9900000000D-04
     Exponent=  1.5997097000D+03 Coefficients=  6.1530000000D-03
     Exponent=  3.6472526000D+02 Coefficients=  3.1157000000D-02
     Exponent=  1.0365179000D+02 Coefficients=  1.1559600000D-01
     Exponent=  3.3905805000D+01 Coefficients=  3.0155200000D-01
 S 2 1.00
     Exponent=  1.2287469000D+01 Coefficients=  4.4487000000D-01
     Exponent=  4.7568050000D+00 Coefficients=  2.4317200000D-01
 S 1 1.00
     Exponent=  1.0042710000D+00 Coefficients=  1.0000000000D+00
 S 1 1.00
     Exponent=  3.0068600000D-01 Coefficients=  1.0000000000D+00
 S 1 1.00
     Exponent=  9.0030000000D-02 Coefficients=  1.0000000000D+00
 P 4 1.00
     Exponent=  3.4856463000D+01 Coefficients=  1.5648000000D-02
     Exponent=  7.8431310000D+00 Coefficients=  9.8197000000D-02
     Exponent=  2.3062490000D+00 Coefficients=  3.0776800000D-01
     Exponent=  7.2316400000D-01 Coefficients=  4.9247000000D-01
 P 1 1.00
     Exponent=  2.1488200000D-01 Coefficients=  1.0000000000D+00
 P 1 1.00
     Exponent=  6.3850000000D-02 Coefficients=  1.0000000000D+00
 D 2 1.00
     Exponent=  2.3062000000D+00 Coefficients=  2.0270000000D-01
     Exponent=  7.2320000000D-01 Coefficients=  5.7910000000D-01
 D 2 1.00
     Exponent=  2.1490000000D-01 Coefficients=  7.8545000000D-01
     Exponent=  6.3900000000D-02 Coefficients=  5.3387000000D-01
 ****
 Centers:       1
 S 6 1.00
     Exponent=  7.7492430000D+04 Coefficients=  7.8700000000D-04
     Exponent=  1.1605790000D+04 Coefficients=  6.1090000000D-03
     Exponent=  2.6459600000D+03 Coefficients=  3.1368000000D-02
     Exponent=  7.5498000000D+02 Coefficients=  1.2429100000D-01
     Exponent=  2.4875000000D+02 Coefficients=  3.8068200000D-01
     Exponent=  9.1157000000D+01 Coefficients=  5.5998900000D-01
 S 3 1.00
     Exponent=  9.1157000000D+01 Coefficients=  1.6399700000D-01
     Exponent=  3.6226000000D+01 Coefficients=  6.2592700000D-01
     Exponent=  1.5211000000D+01 Coefficients=  2.6221100000D-01
 S 1 1.00
     Exponent=  4.7138000000D+00 Coefficients=  1.0000000000D+00
 S 1 1.00
     Exponent=  1.7827000000D+00 Coefficients=  1.0000000000D+00
 S 1 1.00
     Exponent=  3.4250000000D-01 Coefficients=  1.0000000000D+00
 S 1 1.00
     Exponent=  1.2460000000D-01 Coefficients=  1.0000000000D+00
 S 1 1.00
     Exponent=  4.5300000000D-02 Coefficients=  1.0000000000D+00
 P 6 1.00
     Exponent=  3.8484000000D+02 Coefficients=  3.7650000000D-03
     Exponent=  9.0552000000D+01 Coefficients=  2.9010000000D-02
     Exponent=  2.8806000000D+01 Coefficients=  1.2295300000D-01
     Exponent=  1.0688000000D+01 Coefficients=  3.0647000000D-01
     Exponent=  4.2521000000D+00 Coefficients=  4.4134900000D-01
     Exponent=  1.7405000000D+00 Coefficients=  2.9581700000D-01
 P 1 1.00
     Exponent=  5.9790000000D-01 Coefficients=  1.0000000000D+00
 P 1 1.00
     Exponent=  2.2920000000D-01 Coefficients=  1.0000000000D+00
 P 1 1.00
     Exponent=  8.3800000000D-02 Coefficients=  1.0000000000D+00
 P 1 1.00
     Exponent=  3.0600000000D-02 Coefficients=  1.0000000000D+00
 D 2 1.00
     Exponent=  5.9790000000D-01 Coefficients=  3.0930000000D-01
     Exponent=  2.2920000000D-01 Coefficients=  9.7150000000D-01
 D 2 1.00
     Exponent=  8.3800000000D-02 Coefficients=  1.2780000000D-01
     Exponent=  3.0600000000D-02 Coefficients=  7.7400000000D-02
 ****
 Ernie: Thresh=  0.10000D-02 Tol=  0.10000D-05 Strict=F.
 The following finite field(s) will be applied:
 An electric field of              0.0008  0.0000  0.0000
 In input orientation:  1.26773665D-05 -7.97759952D-04  5.84665975D-05
 There are   156 symmetry adapted cartesian basis functions of A   symmetry.
 There are   146 symmetry adapted basis functions of A   symmetry.
   146 basis functions,   312 primitive gaussians,   156 cartesian basis functions
    25 alpha electrons       25 beta electrons
       nuclear repulsion energy       262.2134740329 Hartrees.
 IExCor= 4336 DFT=T Ex+Corr=M062X ExCW=0 ScaHFX=  0.540000
 ScaDFX=  1.000000  1.000000  1.000000  1.000000 ScalE2=  1.000000  1.000000
 IRadAn=      5 IRanWt=     -1 IRanGd=            0 ICorTp=0 IEmpDi=  4
 NAtoms=    7 NActive=    7 NUniq=    7 SFac= 1.00D+00 NAtFMM=   60 NAOKFM=F Big=F
 Integral buffers will be    131072 words long.
 Raffenetti 2 integral format.
 Two-electron integral symmetry is turned on.
 Leave Link  301 at Mon Nov 30 17:35:27 2020, MaxMem= 21474836480 cpu:               5.5 elap:               0.4
 (Enter /apps/gaussian/g16c01/g16/l302.exe)
 NPDir=0 NMtPBC=     1 NCelOv=     1 NCel=       1 NClECP=     1 NCelD=      1
         NCelK=      1 NCelE2=     1 NClLst=     1 CellRange=     0.0.
 One-electron integrals computed using PRISM.
 One-electron integral symmetry used in STVInt
 NBasis=   146 RedAO= T EigKep=  2.42D-04  NBF=   146
 NBsUse=   146 1.00D-06 EigRej= -1.00D+00 NBFU=   146
 Precomputing XC quadrature grid using
 IXCGrd= 4 IRadAn=           5 IRanWt=          -1 IRanGd=           0 AccXCQ= 0.00D+00.
 Generated NRdTot=       0 NPtTot=           0 NUsed=           0 NTot=          32
 NSgBfM=   154   154   154   154   154 MxSgAt=     7 MxSgA2=     7.
 Leave Link  302 at Mon Nov 30 17:35:30 2020, MaxMem= 21474836480 cpu:              76.9 elap:               3.2
 (Enter /apps/gaussian/g16c01/g16/l303.exe)
 DipDrv:  MaxL=1.
 The nuclear repulsion energy is now       262.2134740329 hartrees.
 Leave Link  303 at Mon Nov 30 17:35:31 2020, MaxMem= 21474836480 cpu:               8.9 elap:               0.6
 (Enter /apps/gaussian/g16c01/g16/l401.exe)
 ExpMin= 3.06D-02 ExpMax= 7.75D+04 ExpMxC= 2.65D+03 IAcc=3 IRadAn=         5 AccDes= 0.00D+00
 Harris functional with IExCor= 1009 and IRadAn=       5 diagonalized for initial guess.
 HarFok:  IExCor= 1009 AccDes= 0.00D+00 IRadAn=         5 IDoV= 1 UseB2=F ITyADJ=14
 ICtDFT=  3500011 ScaDFX=  1.000000  1.000000  1.000000  1.000000
 FoFCou: FMM=F IPFlag=           0 FMFlag=      100000 FMFlg1=           0
         NFxFlg=           0 DoJE=T BraDBF=F KetDBF=T FulRan=T
         wScrn=  0.000000 ICntrl=       500 IOpCl=  0 I1Cent=   200000004 NGrid=           0
         NMat0=    1 NMatS0=      1 NMatT0=    0 NMatD0=    1 NMtDS0=    0 NMtDT0=    0
 Petite list used in FoFCou.
 Harris En= -643.551005442628    
 JPrj=0 DoOrth=F DoCkMO=F.
 Leave Link  401 at Mon Nov 30 17:35:33 2020, MaxMem= 21474836480 cpu:              40.6 elap:               1.9
 (Enter /apps/gaussian/g16c01/g16/l502.exe)
 Keep R1 ints in memory in canonical form, NReq=104885708.
 FoFCou: FMM=F IPFlag=           0 FMFlag=           0 FMFlg1=           0
         NFxFlg=           0 DoJE=F BraDBF=F KetDBF=F FulRan=T
         wScrn=  0.000000 ICntrl=       600 IOpCl=  0 I1Cent=           0 NGrid=           0
         NMat0=    1 NMatS0=  10731 NMatT0=    0 NMatD0=    1 NMtDS0=    0 NMtDT0=    0
 Symmetry not used in FoFCou.
 Two-electron integral symmetry not used.
 Closed shell SCF:
 Using DIIS extrapolation, IDIIS=  1040.
 NGot= 21474836480 LenX= 21417196084 LenY= 21417171307
 Requested convergence on RMS density matrix=1.00D-08 within 128 cycles.
 Requested convergence on MAX density matrix=1.00D-06.
 Requested convergence on             energy=1.00D-06.
 No special actions if energy rises.

 Cycle   1  Pass 1  IDiag  1:
 E= -643.255936673055    
 DIIS: error= 4.21D-02 at cycle   1 NSaved=   1.
 NSaved= 1 IEnMin= 1 EnMin= -643.255936673055     IErMin= 1 ErrMin= 4.21D-02
 ErrMax= 4.21D-02  0.00D+00 EMaxC= 1.00D-01 BMatC= 5.11D-01 BMatP= 5.11D-01
 IDIUse=3 WtCom= 5.79D-01 WtEn= 4.21D-01
 Coeff-Com:  0.100D+01
 Coeff-En:   0.100D+01
 Coeff:      0.100D+01
 Gap=     0.273 Goal=   None    Shift=    0.000
 GapD=    0.273 DampG=1.000 DampE=0.500 DampFc=0.5000 IDamp=-1.
 Damping current iteration by 5.00D-01
 RMSDP=1.04D-02 MaxDP=2.99D-01              OVMax= 2.27D-01

 Cycle   2  Pass 1  IDiag  1:
 E= -643.396865829965     Delta-E=       -0.140929156910 Rises=F Damp=T
 DIIS: error= 9.20D-03 at cycle   2 NSaved=   2.
 NSaved= 2 IEnMin= 2 EnMin= -643.396865829965     IErMin= 2 ErrMin= 9.20D-03
 ErrMax= 9.20D-03  0.00D+00 EMaxC= 1.00D-01 BMatC= 2.87D-02 BMatP= 5.11D-01
 IDIUse=3 WtCom= 9.08D-01 WtEn= 9.20D-02
 Coeff-Com:  0.924D-01 0.908D+00
 Coeff-En:   0.208D+00 0.792D+00
 Coeff:      0.103D+00 0.897D+00
 Gap=     0.271 Goal=   None    Shift=    0.000
 RMSDP=1.88D-03 MaxDP=6.77D-02 DE=-1.41D-01 OVMax= 1.42D-01

 Cycle   3  Pass 1  IDiag  1:
 E= -643.603183396998     Delta-E=       -0.206317567033 Rises=F Damp=F
 DIIS: error= 4.82D-03 at cycle   3 NSaved=   3.
 NSaved= 3 IEnMin= 3 EnMin= -643.603183396998     IErMin= 3 ErrMin= 4.82D-03
 ErrMax= 4.82D-03  0.00D+00 EMaxC= 1.00D-01 BMatC= 6.05D-03 BMatP= 2.87D-02
 IDIUse=3 WtCom= 9.52D-01 WtEn= 4.82D-02
 Coeff-Com: -0.715D-02 0.255D+00 0.752D+00
 Coeff-En:   0.000D+00 0.000D+00 0.100D+01
 Coeff:     -0.680D-02 0.243D+00 0.764D+00
 Gap=     0.268 Goal=   None    Shift=    0.000
 RMSDP=8.00D-04 MaxDP=2.54D-02 DE=-2.06D-01 OVMax= 2.32D-02

 Cycle   4  Pass 1  IDiag  1:
 E= -643.605171444862     Delta-E=       -0.001988047864 Rises=F Damp=F
 DIIS: error= 3.09D-03 at cycle   4 NSaved=   4.
 NSaved= 4 IEnMin= 4 EnMin= -643.605171444862     IErMin= 4 ErrMin= 3.09D-03
 ErrMax= 3.09D-03  0.00D+00 EMaxC= 1.00D-01 BMatC= 3.56D-03 BMatP= 6.05D-03
 IDIUse=3 WtCom= 9.69D-01 WtEn= 3.09D-02
 Coeff-Com: -0.148D-01 0.401D-01 0.452D+00 0.522D+00
 Coeff-En:   0.000D+00 0.000D+00 0.375D+00 0.625D+00
 Coeff:     -0.143D-01 0.388D-01 0.450D+00 0.526D+00
 Gap=     0.273 Goal=   None    Shift=    0.000
 RMSDP=3.18D-04 MaxDP=8.90D-03 DE=-1.99D-03 OVMax= 9.16D-03

 Cycle   5  Pass 1  IDiag  1:
 E= -643.607781737429     Delta-E=       -0.002610292567 Rises=F Damp=F
 DIIS: error= 1.80D-04 at cycle   5 NSaved=   5.
 NSaved= 5 IEnMin= 5 EnMin= -643.607781737429     IErMin= 5 ErrMin= 1.80D-04
 ErrMax= 1.80D-04  0.00D+00 EMaxC= 1.00D-01 BMatC= 8.36D-06 BMatP= 3.56D-03
 IDIUse=3 WtCom= 9.98D-01 WtEn= 1.80D-03
 Coeff-Com: -0.102D-02 0.123D-03 0.547D-01 0.879D-01 0.858D+00
 Coeff-En:   0.000D+00 0.000D+00 0.000D+00 0.000D+00 0.100D+01
 Coeff:     -0.102D-02 0.123D-03 0.546D-01 0.877D-01 0.859D+00
 Gap=     0.272 Goal=   None    Shift=    0.000
 RMSDP=4.28D-05 MaxDP=1.01D-03 DE=-2.61D-03 OVMax= 6.97D-04

 Cycle   6  Pass 1  IDiag  1:
 E= -643.607788593941     Delta-E=       -0.000006856512 Rises=F Damp=F
 DIIS: error= 6.39D-05 at cycle   6 NSaved=   6.
 NSaved= 6 IEnMin= 6 EnMin= -643.607788593941     IErMin= 6 ErrMin= 6.39D-05
 ErrMax= 6.39D-05  0.00D+00 EMaxC= 1.00D-01 BMatC= 1.31D-06 BMatP= 8.36D-06
 IDIUse=1 WtCom= 1.00D+00 WtEn= 0.00D+00
 Coeff-Com:  0.202D-03-0.174D-02 0.228D-02 0.118D-01 0.335D+00 0.653D+00
 Coeff:      0.202D-03-0.174D-02 0.228D-02 0.118D-01 0.335D+00 0.653D+00
 Gap=     0.273 Goal=   None    Shift=    0.000
 RMSDP=1.36D-05 MaxDP=5.43D-04 DE=-6.86D-06 OVMax= 2.76D-04

 Cycle   7  Pass 1  IDiag  1:
 E= -643.607789670571     Delta-E=       -0.000001076630 Rises=F Damp=F
 DIIS: error= 2.03D-05 at cycle   7 NSaved=   7.
 NSaved= 7 IEnMin= 7 EnMin= -643.607789670571     IErMin= 7 ErrMin= 2.03D-05
 ErrMax= 2.03D-05  0.00D+00 EMaxC= 1.00D-01 BMatC= 1.37D-07 BMatP= 1.31D-06
 IDIUse=1 WtCom= 1.00D+00 WtEn= 0.00D+00
 Coeff-Com:  0.182D-03-0.739D-03-0.398D-02-0.272D-02 0.738D-01 0.253D+00
 Coeff-Com:  0.681D+00
 Coeff:      0.182D-03-0.739D-03-0.398D-02-0.272D-02 0.738D-01 0.253D+00
 Coeff:      0.681D+00
 Gap=     0.273 Goal=   None    Shift=    0.000
 RMSDP=3.88D-06 MaxDP=1.22D-04 DE=-1.08D-06 OVMax= 1.47D-04

 Cycle   8  Pass 1  IDiag  1:
 E= -643.607789759538     Delta-E=       -0.000000088966 Rises=F Damp=F
 DIIS: error= 1.73D-05 at cycle   8 NSaved=   8.
 NSaved= 8 IEnMin= 8 EnMin= -643.607789759538     IErMin= 8 ErrMin= 1.73D-05
 ErrMax= 1.73D-05  0.00D+00 EMaxC= 1.00D-01 BMatC= 4.77D-08 BMatP= 1.37D-07
 IDIUse=1 WtCom= 1.00D+00 WtEn= 0.00D+00
 Coeff-Com:  0.605D-04-0.209D-04-0.283D-02-0.402D-02-0.270D-01-0.599D-02
 Coeff-Com:  0.391D+00 0.649D+00
 Coeff:      0.605D-04-0.209D-04-0.283D-02-0.402D-02-0.270D-01-0.599D-02
 Coeff:      0.391D+00 0.649D+00
 Gap=     0.273 Goal=   None    Shift=    0.000
 RMSDP=1.69D-06 MaxDP=5.61D-05 DE=-8.90D-08 OVMax= 5.38D-05

 Cycle   9  Pass 1  IDiag  1:
 E= -643.607789800200     Delta-E=       -0.000000040662 Rises=F Damp=F
 DIIS: error= 8.26D-07 at cycle   9 NSaved=   9.
 NSaved= 9 IEnMin= 9 EnMin= -643.607789800200     IErMin= 9 ErrMin= 8.26D-07
 ErrMax= 8.26D-07  0.00D+00 EMaxC= 1.00D-01 BMatC= 3.08D-10 BMatP= 4.77D-08
 IDIUse=1 WtCom= 1.00D+00 WtEn= 0.00D+00
 Coeff-Com: -0.148D-04 0.394D-04 0.789D-04 0.847D-04-0.392D-02-0.103D-01
 Coeff-Com: -0.191D-01 0.126D-01 0.102D+01
 Coeff:     -0.148D-04 0.394D-04 0.789D-04 0.847D-04-0.392D-02-0.103D-01
 Coeff:     -0.191D-01 0.126D-01 0.102D+01
 Gap=     0.273 Goal=   None    Shift=    0.000
 RMSDP=4.12D-07 MaxDP=1.74D-05 DE=-4.07D-08 OVMax= 1.05D-05

 Cycle  10  Pass 1  IDiag  1:
 E= -643.607789800798     Delta-E=       -0.000000000598 Rises=F Damp=F
 DIIS: error= 2.06D-07 at cycle  10 NSaved=  10.
 NSaved=10 IEnMin=10 EnMin= -643.607789800798     IErMin=10 ErrMin= 2.06D-07
 ErrMax= 2.06D-07  0.00D+00 EMaxC= 1.00D-01 BMatC= 1.94D-11 BMatP= 3.08D-10
 IDIUse=1 WtCom= 1.00D+00 WtEn= 0.00D+00
 Coeff-Com: -0.576D-05 0.807D-05 0.144D-03 0.198D-03 0.633D-03-0.805D-03
 Coeff-Com: -0.235D-01-0.334D-01 0.159D+00 0.898D+00
 Coeff:     -0.576D-05 0.807D-05 0.144D-03 0.198D-03 0.633D-03-0.805D-03
 Coeff:     -0.235D-01-0.334D-01 0.159D+00 0.898D+00
 Gap=     0.273 Goal=   None    Shift=    0.000
 RMSDP=8.08D-08 MaxDP=1.61D-06 DE=-5.98D-10 OVMax= 2.34D-06

 Cycle  11  Pass 1  IDiag  1:
 E= -643.607789800832     Delta-E=       -0.000000000033 Rises=F Damp=F
 DIIS: error= 1.11D-07 at cycle  11 NSaved=  11.
 NSaved=11 IEnMin=11 EnMin= -643.607789800832     IErMin=11 ErrMin= 1.11D-07
 ErrMax= 1.11D-07  0.00D+00 EMaxC= 1.00D-01 BMatC= 3.00D-12 BMatP= 1.94D-11
 IDIUse=1 WtCom= 1.00D+00 WtEn= 0.00D+00
 Coeff-Com: -0.682D-06 0.359D-06 0.377D-04 0.490D-04 0.377D-03 0.356D-03
 Coeff-Com: -0.578D-02-0.108D-01-0.930D-02 0.282D+00 0.743D+00
 Coeff:     -0.682D-06 0.359D-06 0.377D-04 0.490D-04 0.377D-03 0.356D-03
 Coeff:     -0.578D-02-0.108D-01-0.930D-02 0.282D+00 0.743D+00
 Gap=     0.273 Goal=   None    Shift=    0.000
 RMSDP=1.85D-08 MaxDP=5.94D-07 DE=-3.34D-11 OVMax= 5.16D-07

 Cycle  12  Pass 1  IDiag  1:
 E= -643.607789800832     Delta-E=        0.000000000000 Rises=F Damp=F
 DIIS: error= 7.12D-08 at cycle  12 NSaved=  12.
 NSaved=12 IEnMin=11 EnMin= -643.607789800832     IErMin=12 ErrMin= 7.12D-08
 ErrMax= 7.12D-08  0.00D+00 EMaxC= 1.00D-01 BMatC= 1.03D-12 BMatP= 3.00D-12
 IDIUse=1 WtCom= 1.00D+00 WtEn= 0.00D+00
 Coeff-Com:  0.870D-06-0.148D-05-0.795D-05-0.136D-04 0.780D-04 0.359D-03
 Coeff-Com:  0.163D-02 0.851D-03-0.384D-01-0.216D-01 0.404D+00 0.653D+00
 Coeff:      0.870D-06-0.148D-05-0.795D-05-0.136D-04 0.780D-04 0.359D-03
 Coeff:      0.163D-02 0.851D-03-0.384D-01-0.216D-01 0.404D+00 0.653D+00
 Gap=     0.273 Goal=   None    Shift=    0.000
 RMSDP=8.29D-09 MaxDP=2.41D-07 DE= 0.00D+00 OVMax= 2.19D-07

 SCF Done:  E(RM062X) =  -643.607789801     A.U. after   12 cycles
            NFock= 12  Conv=0.83D-08     -V/T= 2.0042
 KE= 6.408969373756D+02 PE=-2.060825818048D+03 EE= 5.141076168391D+02
 Leave Link  502 at Mon Nov 30 17:35:47 2020, MaxMem= 21474836480 cpu:             321.6 elap:              14.5
 (Enter /apps/gaussian/g16c01/g16/l801.exe)
 DoSCS=F DFT=T ScalE2(SS,OS)=  1.000000  1.000000
 Range of M.O.s used for correlation:     1   146
 NBasis=   146 NAE=    25 NBE=    25 NFC=     0 NFV=     0
 NROrb=    146 NOA=    25 NOB=    25 NVA=   121 NVB=   121

 **** Warning!!: The largest alpha MO coefficient is  0.14601643D+02

 Leave Link  801 at Mon Nov 30 17:35:48 2020, MaxMem= 21474836480 cpu:               2.7 elap:               0.1
 (Enter /apps/gaussian/g16c01/g16/l1002.exe)
 Minotr:  Closed shell wavefunction.
          Direct CPHF calculation.
          Differentiating once with respect to electric field.
                with respect to dipole field.
          Electric field/nuclear overlap derivatives assumed to be zero.
          Requested convergence is 1.0D-08 RMS, and 1.0D-07 maximum.
          Secondary convergence is 1.0D-12 RMS, and 1.0D-12 maximum.
          NewPWx=F KeepS1=T KeepF1=T KeepIn=T MapXYZ=F SortEE=F KeepMc=T.
         2164 words used for storage of precomputed grid.
 Keep R1 ints in memory in canonical form, NReq=104735707.
 FoFCou: FMM=F IPFlag=           0 FMFlag=           0 FMFlg1=           0
         NFxFlg=           0 DoJE=F BraDBF=F KetDBF=F FulRan=T
         wScrn=  0.000000 ICntrl=       600 IOpCl=  0 I1Cent=           0 NGrid=           0
         NMat0=    1 NMatS0=  10731 NMatT0=    0 NMatD0=    1 NMtDS0=    0 NMtDT0=    0
 Symmetry not used in FoFCou.
 Two-electron integral symmetry not used.
          MDV=   21474836480 using IRadAn=       1.
          Solving linear equations simultaneously, MaxMat=       0.
          There are     3 degrees of freedom in the 1st order CPHF.  IDoFFX=0 NUNeed=     3.
      3 vectors produced by pass  0 Test12= 1.01D-13 3.33D-08 XBig12= 2.16D+01 1.21D+00.
 AX will form     3 AO Fock derivatives at one time.
      3 vectors produced by pass  1 Test12= 1.01D-13 3.33D-08 XBig12= 5.70D+00 5.60D-01.
      3 vectors produced by pass  2 Test12= 1.01D-13 3.33D-08 XBig12= 1.18D+00 1.75D-01.
      3 vectors produced by pass  3 Test12= 1.01D-13 3.33D-08 XBig12= 1.04D-01 5.35D-02.
      3 vectors produced by pass  4 Test12= 1.01D-13 3.33D-08 XBig12= 1.59D-02 2.21D-02.
      3 vectors produced by pass  5 Test12= 1.01D-13 3.33D-08 XBig12= 1.06D-03 8.98D-03.
      3 vectors produced by pass  6 Test12= 1.01D-13 3.33D-08 XBig12= 5.07D-05 1.81D-03.
      3 vectors produced by pass  7 Test12= 1.01D-13 3.33D-08 XBig12= 2.16D-06 3.34D-04.
      3 vectors produced by pass  8 Test12= 1.01D-13 3.33D-08 XBig12= 3.60D-08 3.12D-05.
      3 vectors produced by pass  9 Test12= 1.01D-13 3.33D-08 XBig12= 5.95D-10 4.55D-06.
      3 vectors produced by pass 10 Test12= 1.01D-13 3.33D-08 XBig12= 1.77D-11 6.99D-07.
      3 vectors produced by pass 11 Test12= 1.01D-13 3.33D-08 XBig12= 4.95D-13 1.09D-07.
 InvSVY:  IOpt=1 It=  1 EMax= 1.78D-15
 Solved reduced A of dimension    36 with     3 vectors.
 FullF1:  Do perturbations      1 to       3.
 SCF Polarizability for W=    0.000000:
                1             2             3 
      1  0.447471D+02
      2  0.753944D-02  0.474792D+02
      3  0.317111D-02 -0.347749D+00  0.431446D+02
 Isotropic polarizability for W=    0.000000       45.12 Bohr**3.
 SCF Static Hyperpolarizability:
 K=  1 block:
                1 
      1  0.109356D+02
 K=  2 block:
                1             2 
      1 -0.664333D+01
      2  0.343444D+01 -0.567331D+02
 K=  3 block:
                1             2             3 
      1  0.517059D+01
      2  0.398140D+00 -0.136294D+02
      3  0.377254D+01  0.547218D+01 -0.899166D+01
 End of Minotr F.D. properties file   721 does not exist.
 End of Minotr F.D. properties file   722 does not exist.
 End of Minotr F.D. properties file   788 does not exist.
 Leave Link 1002 at Mon Nov 30 17:35:53 2020, MaxMem= 21474836480 cpu:             212.6 elap:               5.7
 (Enter /apps/gaussian/g16c01/g16/l601.exe)
 Copying SCF densities to generalized density rwf, IOpCl= 0 IROHF=0.

 **********************************************************************

            Population analysis using the SCF Density.

 **********************************************************************

 Orbital symmetries:
       Occupied  (A) (A) (A) (A) (A) (A) (A) (A) (A) (A) (A) (A)
                 (A) (A) (A) (A) (A) (A) (A) (A) (A) (A) (A) (A)
                 (A)
       Virtual   (A) (A) (A) (A) (A) (A) (A) (A) (A) (A) (A) (A)
                 (A) (A) (A) (A) (A) (A) (A) (A) (A) (A) (A) (A)
                 (A) (A) (A) (A) (A) (A) (A) (A) (A) (A) (A) (A)
                 (A) (A) (A) (A) (A) (A) (A) (A) (A) (A) (A) (A)
                 (A) (A) (A) (A) (A) (A) (A) (A) (A) (A) (A) (A)
                 (A) (A) (A) (A) (A) (A) (A) (A) (A) (A) (A) (A)
                 (A) (A) (A) (A) (A) (A) (A) (A) (A) (A) (A) (A)
                 (A) (A) (A) (A) (A) (A) (A) (A) (A) (A) (A) (A)
                 (A) (A) (A) (A) (A) (A) (A) (A) (A) (A) (A) (A)
                 (A) (A) (A) (A) (A) (A) (A) (A) (A) (A) (A) (A)
                 (A)
 The electronic state is 1-A.
 Alpha  occ. eigenvalues --  -78.01218 -19.47452 -19.47241 -19.40786 -19.39865
 Alpha  occ. eigenvalues --   -6.78295  -4.90166  -4.90100  -4.89904  -0.99813
 Alpha  occ. eigenvalues --   -0.94716  -0.89247  -0.86712  -0.48084  -0.40338
 Alpha  occ. eigenvalues --   -0.37384  -0.33119  -0.32219  -0.26545  -0.25535
 Alpha  occ. eigenvalues --   -0.22754  -0.20130  -0.18051  -0.17369  -0.16300
 Alpha virt. eigenvalues --    0.10960   0.12950   0.15183   0.15591   0.16894
 Alpha virt. eigenvalues --    0.18343   0.19226   0.19941   0.22153   0.24912
 Alpha virt. eigenvalues --    0.27101   0.29869   0.31576   0.32054   0.32262
 Alpha virt. eigenvalues --    0.33126   0.33483   0.34291   0.34992   0.35468
 Alpha virt. eigenvalues --    0.36448   0.36699   0.38370   0.38506   0.39310
 Alpha virt. eigenvalues --    0.39513   0.40349   0.42844   0.43583   0.45508
 Alpha virt. eigenvalues --    0.46680   0.49714   0.52008   0.53034   0.55267
 Alpha virt. eigenvalues --    0.56235   0.56961   0.57228   0.60637   0.60682
 Alpha virt. eigenvalues --    0.63767   0.64821   0.72018   0.72596   0.76016
 Alpha virt. eigenvalues --    0.77016   0.77415   0.81615   0.82658   0.83444
 Alpha virt. eigenvalues --    0.84061   0.86753   0.88046   0.90925   0.91096
 Alpha virt. eigenvalues --    0.91639   0.94233   0.96989   0.98820   1.00519
 Alpha virt. eigenvalues --    1.02163   1.03484   1.03723   1.03952   1.10600
 Alpha virt. eigenvalues --    1.10807   1.15151   1.16630   1.20868   1.21261
 Alpha virt. eigenvalues --    1.26282   1.28021   1.30307   1.30400   1.34341
 Alpha virt. eigenvalues --    1.34928   1.37279   1.47142   1.53316   1.59616
 Alpha virt. eigenvalues --    1.61226   1.61613   1.63230   1.68796   1.73380
 Alpha virt. eigenvalues --    1.77828   1.81697   1.88327   1.92415   2.00101
 Alpha virt. eigenvalues --    2.01875   2.29670   2.30419   2.42700   2.48136
 Alpha virt. eigenvalues --    2.62188   2.62195   2.64265   2.69777   2.70032
 Alpha virt. eigenvalues --    2.73145   2.73631   2.74613   2.77540   2.78175
 Alpha virt. eigenvalues --    2.78824   2.88114   2.89725   2.92170   2.99684
 Alpha virt. eigenvalues --    3.15743   3.21398   3.33886   3.45243   3.47377
 Alpha virt. eigenvalues --    7.39522  42.91464  42.94784  43.13865  43.20984
 Alpha virt. eigenvalues --  164.48689
          Condensed to atoms (all electrons):
               1          2          3          4          5          6
     1  P   14.687137  -0.563351  -0.361449   0.077441  -0.074917   0.080499
     2  O   -0.563351   9.163446   0.084795  -0.033687   0.002986  -0.033971
     3  O   -0.361449   0.084795   8.919157   0.049223  -0.005136   0.048862
     4  O    0.077441  -0.033687   0.049223   7.944064   0.103809  -0.092908
     5  H   -0.074917   0.002986  -0.005136   0.103809   1.353206   0.006733
     6  O    0.080499  -0.033971   0.048862  -0.092908   0.006733   7.937064
     7  H   -0.075349   0.002710  -0.006060   0.006951   0.000285   0.107268
               7
     1  P   -0.075349
     2  O    0.002710
     3  O   -0.006060
     4  O    0.006951
     5  H    0.000285
     6  O    0.107268
     7  H    1.346458
 Mulliken charges:
               1
     1  P    1.229989
     2  O   -0.622927
     3  O   -0.729393
     4  O   -0.054893
     5  H   -0.386966
     6  O   -0.053548
     7  H   -0.382262
 Sum of Mulliken charges =  -1.00000
 Mulliken charges with hydrogens summed into heavy atoms:
               1
     1  P    1.229989
     2  O   -0.622927
     3  O   -0.729393
     4  O   -0.441859
     6  O   -0.435810
 Electronic spatial extent (au):  <R**2>=            419.5164
 Charge=             -1.0000 electrons
 Dipole moment (field-independent basis, Debye):
    X=             -0.1048    Y=             -3.3499    Z=             -1.2890  Tot=              3.5909
 Quadrupole moment (field-independent basis, Debye-Ang):
   XX=            -40.0281   YY=            -44.5634   ZZ=            -47.2814
   XY=             -0.0037   XZ=              0.0217   YZ=              2.4863
 Traceless Quadrupole moment (field-independent basis, Debye-Ang):
   XX=              3.9295   YY=             -0.6058   ZZ=             -3.3237
   XY=             -0.0037   XZ=              0.0217   YZ=              2.4863
 Octapole moment (field-independent basis, Debye-Ang**2):
  XXX=             -0.5069  YYY=            -19.2891  ZZZ=             -5.7841  XYY=             -0.1621
  XXY=             -7.5201  XXZ=              5.2705  XZZ=             -0.1134  YZZ=              6.0302
  YYZ=             -8.8009  XYZ=             -0.0608
 Hexadecapole moment (field-independent basis, Debye-Ang**3):
 XXXX=           -186.8081 YYYY=           -209.1446 ZZZZ=           -182.1288 XXXY=              0.2557
 XXXZ=              0.2193 YYYX=             -0.2567 YYYZ=              4.1389 ZZZX=              0.0360
 ZZZY=              5.3820 XXYY=            -50.8827 XXZZ=            -65.7619 YYZZ=            -65.1276
 XXYZ=              2.6047 YYXZ=             -0.0233 ZZXY=              0.0446
 N-N= 2.622134740329D+02 E-N=-2.060825818166D+03  KE= 6.408969373756D+02
  Exact polarizability:      44.747       0.008      47.479       0.003      -0.348      43.145
 Approx polarizability:      47.937       0.011      54.991       0.002      -2.035      48.293
 No NMR shielding tensors so no spin-rotation constants.
 Leave Link  601 at Mon Nov 30 17:35:55 2020, MaxMem= 21474836480 cpu:              47.1 elap:               1.8
 (Enter /apps/gaussian/g16c01/g16/l9999.exe)

 ----------------------------------------------------------------------

 Electric dipole moment (input orientation):
 (Debye = 10**-18 statcoulomb cm , SI units = C m)
                  (au)            (Debye)         (10**-30 SI)
   Tot        0.141276D+01      0.359089D+01      0.119779D+02
   x          0.134664D+01      0.342282D+01      0.114173D+02
   y          0.932857D-01      0.237109D+00      0.790909D+00
   z          0.416845D+00      0.105951D+01      0.353416D+01

 Dipole polarizability, Alpha (input orientation).
 (esu units = cm**3 , SI units = C**2 m**2 J**-1)
 Alpha(0;0):
               (au)            (10**-24 esu)      (10**-40 SI)
   iso        0.451236D+02      0.668663D+01      0.743988D+01
   aniso      0.384362D+01      0.569566D+00      0.633728D+00
   xx         0.474168D+02      0.702645D+01      0.781798D+01
   yx         0.464612D-02      0.688484D-03      0.766042D-03
   yy         0.447388D+02      0.662960D+01      0.737643D+01
   zx        -0.621168D+00     -0.920477D-01     -0.102417D+00
   zy        -0.119461D+00     -0.177022D-01     -0.196964D-01
   zz         0.432153D+02      0.640384D+01      0.712523D+01

 First dipole hyperpolarizability, Beta (input orientation).
 ||, _|_  parallel and perpendicular components, (z) with respect to z axis,
 vector components x,y,z.  Values do not include the 1/n! factor of 1/2.
 (esu units = statvolt**-1 cm**4 , SI units = C**3 m**3 J**-2)
 Beta(0;0,0):
               (au)            (10**-30 esu)      (10**-50 SI)
   || (z)     0.897920D+01      0.775733D-01      0.287906D-01
   _|_(z)     0.299307D+01      0.258578D-01      0.959685D-02
   x          0.177522D+03      0.153366D+01      0.569201D+00
   y         -0.484692D+02     -0.418737D+00     -0.155410D+00
   z          0.448960D+02      0.387867D+00      0.143953D+00
   ||         0.378836D+02      0.327285D+00      0.121468D+00
   xxx        0.590579D+02      0.510214D+00      0.189361D+00
   xxy       -0.207158D+01     -0.178968D-01     -0.664222D-02
   yxy        0.628021D+01      0.542562D-01      0.201366D-01
   yyy       -0.118258D+02     -0.102165D+00     -0.379177D-01
   xxz        0.938811D+01      0.811060D-01      0.301017D-01
   yxz       -0.110079D+01     -0.950993D-02     -0.352952D-02
   yyz       -0.521345D+01     -0.450401D-01     -0.167162D-01
   zxz       -0.616396D+01     -0.532518D-01     -0.197639D-01
   zyz       -0.225907D+01     -0.195166D-01     -0.724339D-02
   zzz        0.107907D+02      0.932230D-01      0.345988D-01

 ----------------------------------------------------------------------

 Dipole orientation:
    15          0.42283170          1.82610567          1.82171700
     8         -0.39135788          1.90701261         -0.88819212
     8          3.10983781          1.76017798          2.81550444
     8         -1.07483372         -0.66245016          3.21048694
     1          0.18120818         -1.16045794          4.46629150
     8         -0.99975627          4.28572716          3.33594436
     1          0.27035410          4.68184469          4.61390074

 Electric dipole moment (dipole orientation):
 (Debye = 10**-18 statcoulomb cm , SI units = C m)
                  (au)            (Debye)         (10**-30 SI)
   Tot        0.141276D+01      0.359089D+01      0.119779D+02
   x          0.000000D+00      0.000000D+00      0.000000D+00
   y          0.000000D+00      0.000000D+00      0.000000D+00
   z          0.141276D+01      0.359089D+01      0.119779D+02

 Dipole polarizability, Alpha (dipole orientation).
 (esu units = cm**3 , SI units = C**2 m**2 J**-1)
 Alpha(0;0):
               (au)            (10**-24 esu)      (10**-40 SI)
   iso        0.451236D+02      0.668663D+01      0.743988D+01
   aniso      0.384362D+01      0.569566D+00      0.633728D+00
   xx         0.439352D+02      0.651053D+01      0.724394D+01
   yx        -0.367705D-01     -0.544883D-02     -0.606264D-02
   yy         0.447497D+02      0.663123D+01      0.737823D+01
   zx         0.170906D+01      0.253257D+00      0.281786D+00
   zy        -0.765856D-01     -0.113488D-01     -0.126273D-01
   zz         0.466859D+02      0.691813D+01      0.769746D+01

 First dipole hyperpolarizability, Beta (dipole orientation).
 ||, _|_  parallel and perpendicular components, (z) with respect to z axis,
 vector components x,y,z.  Values do not include the 1/n! factor of 1/2.
 (esu units = statvolt**-1 cm**4 , SI units = C**3 m**3 J**-2)
 Beta(0;0,0):
               (au)            (10**-30 esu)      (10**-50 SI)
   || (z)     0.358520D+02      0.309733D+00      0.114954D+00
   _|_(z)     0.119507D+02      0.103244D+00      0.383181D-01
   x          0.125378D+02      0.108317D+00      0.402007D-01
   y         -0.598982D+02     -0.517474D+00     -0.192055D+00
   z          0.179260D+03      0.154867D+01      0.574772D+00
   ||         0.378836D+02      0.327285D+00      0.121468D+00
   xxx       -0.148958D+02     -0.128688D+00     -0.477614D-01
   xxy       -0.294031D+01     -0.254020D-01     -0.942771D-02
   yxy        0.710713D+01      0.614001D-01      0.227880D-01
   yyy       -0.116660D+02     -0.100785D+00     -0.374054D-01
   xxz       -0.147576D+01     -0.127494D-01     -0.473182D-02
   yxz        0.362220D+00      0.312930D-02      0.116141D-02
   yyz        0.426831D+01      0.368749D-01      0.136857D-01
   zxz        0.119679D+02      0.103394D+00      0.383736D-01
   zyz       -0.535976D+01     -0.463041D-01     -0.171853D-01
   zzz        0.569608D+02      0.492097D+00      0.182637D+00

 ----------------------------------------------------------------------
 Unable to Open any file for archive entry.
 1\1\GINC-GADI-CPU-CLX-1639\SP\RM062X\Gen\H2O4P1(1-)\TM3124\30-Nov-2020
 \0\\#P M062X/Gen field=X+8 int=(grid=ultrafine) polar=Dipole\\dhp\\-1,
 1\P,0,0.9387,1.01586,0.00735\O,0,-0.55886,0.98478,-0.00791\O,0,1.866,0
 .94671,-1.19053\O,0,1.4667,-0.20955,1.06658\H,0,2.3113,-0.46062,0.6465
 \O,0,1.41458,2.40255,0.8754\H,0,2.24958,2.62345,0.42044\\Version=ES64L
 -G16RevC.01\State=1-A\HF=-643.6077898\RMSD=8.289e-09\Dipole=1.3466394,
 0.0932857,0.4168452\Polar=47.4168132,0.0046461,44.7387631,-0.6211684,-
 0.1194606,43.2152651\HyperPolar=59.0578859,-2.0715757,6.2802149,-11.82
 57721,9.3881136,-1.1007858,-5.2134499,-6.1639633,-2.2590672,10.7906715
 \Quadrupole=-0.2237713,2.8969814,-2.6732101,0.0732152,1.7045537,-0.366
 652\PG=C01 [X(H2O4P1)]\\@
 The archive entry for this job was punched.


 IF THE FACTS DO NOT CONFORM TO THE THEORY, THEY MUST BE DISPOSED OF.
 Job cpu time:       0 days  0 hours 12 minutes 16.0 seconds.
 Elapsed time:       0 days  0 hours  0 minutes 29.2 seconds.
 File lengths (MBytes):  RWF=     15 Int=      0 D2E=      0 Chk=      3 Scr=      1
 Normal termination of Gaussian 16 at Mon Nov 30 17:35:56 2020.
