dhp                                                                     
SP        RM062X                                                      Gen                 
Number of atoms                            I                7
Info1-9                                    I   N=           9
         113         113           0           0           0         110
           1          18       -5502
Full Title                                 C   N=           1
dhp         
Route                                      C   N=           5
#P M062X/Gen field=Z-8 int=(grid=ultrafine) polar=Dipole    
Charge                                     I               -1
Multiplicity                               I                1
Number of electrons                        I               50
Number of alpha electrons                  I               25
Number of beta electrons                   I               25
Number of basis functions                  I              146
Number of independent functions            I              146
Number of point charges in /Mol/           I                0
Number of translation vectors              I                0
Atomic numbers                             I   N=           7
          15           8           8           8           1           8
           1
Nuclear charges                            R   N=           7
  1.50000000E+01  8.00000000E+00  8.00000000E+00  8.00000000E+00  1.00000000E+00
  8.00000000E+00  1.00000000E+00
Current cartesian coordinates              R   N=          21
  9.96731771E-04  2.20234617E-01  2.76478681E-01  1.26116075E-02  3.04296290E+00
  4.88912571E-01 -6.36173205E-03 -1.67265143E+00  2.42796422E+00  2.47230083E+00
 -6.20740897E-01 -1.60766835E+00  2.91270208E+00 -2.25921824E+00 -8.83695398E-01
 -2.47799540E+00 -6.00701404E-01 -1.60688026E+00 -2.93209549E+00 -2.23525441E+00
 -8.82110277E-01
Number of symbols in /Mol/                 I                0
Int Atom Types                             I   N=           7
           0           0           0           0           0           0
           0
Force Field                                I                0
Atom Types                                 C   N=           7
                                                            
                        
MM charges                                 R   N=           7
  0.00000000E+00  0.00000000E+00  0.00000000E+00  0.00000000E+00  0.00000000E+00
  0.00000000E+00  0.00000000E+00
Integer atomic weights                     I   N=           7
          31          16          16          16           1          16
           1
Real atomic weights                        R   N=           7
  3.09737634E+01  1.59949146E+01  1.59949146E+01  1.59949146E+01  1.00782504E+00
  1.59949146E+01  1.00782504E+00
Atom fragment info                         I   N=           7
           0           0           0           0           0           0
           0
Atom residue num                           I   N=           7
           0           0           0           0           0           0
           0
Nuclear spins                              I   N=           7
           1           0           0           0           1           0
           1
Nuclear ZEff                               R   N=           7
 -1.29400000E+01 -5.60000000E+00 -5.60000000E+00 -5.60000000E+00 -1.00000000E+00
 -5.60000000E+00 -1.00000000E+00
Nuclear ZNuc                               R   N=           7
  1.50000000E+01  8.00000000E+00  8.00000000E+00  8.00000000E+00  1.00000000E+00
  8.00000000E+00  1.00000000E+00
Nuclear QMom                               R   N=           7
  0.00000000E+00  0.00000000E+00  0.00000000E+00  0.00000000E+00  0.00000000E+00
  0.00000000E+00  0.00000000E+00
Nuclear GFac                               R   N=           7
  1.13160000E+00  0.00000000E+00  0.00000000E+00  0.00000000E+00  2.79284600E+00
  0.00000000E+00  2.79284600E+00
MicOpt                                     I   N=           7
          -1          -1          -1          -1          -1          -1
          -1
Number of residues                         I                0
Number of secondary structures             I                0
SymInf integers                            I   N=          26
           1           1           1           1           1           0
           0           0           0           0           0           0
           0           0           0           0           0           0
           0           0           0           0           0           0
           0           0
RotTr to input orientation                 R   N=          12
  1.58467082E-02 -9.97199940E-01  7.30832468E-02 -9.97863049E-01 -1.11386609E-02
  6.43837374E-02 -6.33894096E-02 -7.39473418E-02 -9.95245484E-01  2.01115993E+00
  1.94358910E+00  2.74801273E-01
Number of contracted shells                I               64
Number of primitive shells                 I              128
Pure/Cartesian d shells                    I                0
Pure/Cartesian f shells                    I                0
Highest angular momentum                   I                2
Largest degree of contraction              I                6
Shell types                                I   N=          64
           0           0           0           0           0           0
           0           1           1           1           1           1
          -2          -2           0           0           0           0
           0           1           1           1          -2          -2
           0           0           0           0           0           1
           1           1          -2          -2           0           0
           0           0           0           1           1           1
          -2          -2           0           0           0           1
           1           0           0           0           0           0
           1           1           1          -2          -2           0
           0           0           1           1
Number of primitives per shell             I   N=          64
           6           3           1           1           1           1
           1           6           1           1           1           1
           2           2           5           2           1           1
           1           4           1           1           2           2
           5           2           1           1           1           4
           1           1           2           2           5           2
           1           1           1           4           1           1
           2           2           4           1           1           2
           2           5           2           1           1           1
           4           1           1           2           2           4
           1           1           2           2
Shell to atom map                          I   N=          64
           1           1           1           1           1           1
           1           1           1           1           1           1
           1           1           2           2           2           2
           2           2           2           2           2           2
           3           3           3           3           3           3
           3           3           3           3           4           4
           4           4           4           4           4           4
           4           4           5           5           5           5
           5           6           6           6           6           6
           6           6           6           6           6           7
           7           7           7           7
Primitive exponents                        R   N=         128
  7.74924300E+04  1.16057900E+04  2.64596000E+03  7.54980000E+02  2.48750000E+02
  9.11570000E+01  9.11570000E+01  3.62260000E+01  1.52110000E+01  4.71380000E+00
  1.78270000E+00  3.42500000E-01  1.24600000E-01  4.53000000E-02  3.84840000E+02
  9.05520000E+01  2.88060000E+01  1.06880000E+01  4.25210000E+00  1.74050000E+00
  5.97900000E-01  2.29200000E-01  8.38000000E-02  3.06000000E-02  5.97900000E-01
  2.29200000E-01  8.38000000E-02  3.06000000E-02  1.06622850E+04  1.59970970E+03
  3.64725260E+02  1.03651790E+02  3.39058050E+01  1.22874690E+01  4.75680500E+00
  1.00427100E+00  3.00686000E-01  9.00300000E-02  3.48564630E+01  7.84313100E+00
  2.30624900E+00  7.23164000E-01  2.14882000E-01  6.38500000E-02  2.30620000E+00
  7.23200000E-01  2.14900000E-01  6.39000000E-02  1.06622850E+04  1.59970970E+03
  3.64725260E+02  1.03651790E+02  3.39058050E+01  1.22874690E+01  4.75680500E+00
  1.00427100E+00  3.00686000E-01  9.00300000E-02  3.48564630E+01  7.84313100E+00
  2.30624900E+00  7.23164000E-01  2.14882000E-01  6.38500000E-02  2.30620000E+00
  7.23200000E-01  2.14900000E-01  6.39000000E-02  1.06622850E+04  1.59970970E+03
  3.64725260E+02  1.03651790E+02  3.39058050E+01  1.22874690E+01  4.75680500E+00
  1.00427100E+00  3.00686000E-01  9.00300000E-02  3.48564630E+01  7.84313100E+00
  2.30624900E+00  7.23164000E-01  2.14882000E-01  6.38500000E-02  2.30620000E+00
  7.23200000E-01  2.14900000E-01  6.39000000E-02  3.36850140E+01  5.09478800E+00
  1.15878600E+00  3.25840000E-01  1.02741000E-01  3.24000000E-02  1.15880000E+00
  3.25800000E-01  1.02700000E-01  3.24000000E-02  1.06622850E+04  1.59970970E+03
  3.64725260E+02  1.03651790E+02  3.39058050E+01  1.22874690E+01  4.75680500E+00
  1.00427100E+00  3.00686000E-01  9.00300000E-02  3.48564630E+01  7.84313100E+00
  2.30624900E+00  7.23164000E-01  2.14882000E-01  6.38500000E-02  2.30620000E+00
  7.23200000E-01  2.14900000E-01  6.39000000E-02  3.36850140E+01  5.09478800E+00
  1.15878600E+00  3.25840000E-01  1.02741000E-01  3.24000000E-02  1.15880000E+00
  3.25800000E-01  1.02700000E-01  3.24000000E-02
Contraction coefficients                   R   N=         128
  7.86998727E-04  6.10899012E-03  3.13679492E-02  1.24290799E-01  3.80681384E-01
  5.59988094E-01  1.63997236E-01  6.25927902E-01  2.62211378E-01  1.00000000E+00
  1.00000000E+00  1.00000000E+00  1.00000000E+00  1.00000000E+00  3.76499575E-03
  2.90099673E-02  1.22952861E-01  3.06469654E-01  4.41348502E-01  2.95816666E-01
  1.00000000E+00  1.00000000E+00  1.00000000E+00  1.00000000E+00  2.57098289E-01
  8.07536332E-01  6.80799999E-01  4.12315493E-01  1.90604745E-03  1.46782352E-02
  7.43263084E-02  2.75759025E-01  7.19364732E-01  6.69996511E-01  3.66229217E-01
  1.00000000E+00  1.00000000E+00  1.00000000E+00  1.99439284E-02  1.25155543E-01
  3.92261182E-01  6.27670401E-01  1.00000000E+00  1.00000000E+00  2.83613619E-01
  8.10264660E-01  6.73833443E-01  4.58004278E-01  1.90604745E-03  1.46782352E-02
  7.43263084E-02  2.75759025E-01  7.19364732E-01  6.69996511E-01  3.66229217E-01
  1.00000000E+00  1.00000000E+00  1.00000000E+00  1.99439284E-02  1.25155543E-01
  3.92261182E-01  6.27670401E-01  1.00000000E+00  1.00000000E+00  2.83613619E-01
  8.10264660E-01  6.73833443E-01  4.58004278E-01  1.90604745E-03  1.46782352E-02
  7.43263084E-02  2.75759025E-01  7.19364732E-01  6.69996511E-01  3.66229217E-01
  1.00000000E+00  1.00000000E+00  1.00000000E+00  1.99439284E-02  1.25155543E-01
  3.92261182E-01  6.27670401E-01  1.00000000E+00  1.00000000E+00  2.83613619E-01
  8.10264660E-01  6.73833443E-01  4.58004278E-01  8.76040453E-03  6.54229551E-02
  2.92849871E-01  7.27207417E-01  1.00000000E+00  1.00000000E+00  1.86447366E-01
  8.73088966E-01  9.76214574E-01  3.48056130E-02  1.90604745E-03  1.46782352E-02
  7.43263084E-02  2.75759025E-01  7.19364732E-01  6.69996511E-01  3.66229217E-01
  1.00000000E+00  1.00000000E+00  1.00000000E+00  1.99439284E-02  1.25155543E-01
  3.92261182E-01  6.27670401E-01  1.00000000E+00  1.00000000E+00  2.83613619E-01
  8.10264660E-01  6.73833443E-01  4.58004278E-01  8.76040453E-03  6.54229551E-02
  2.92849871E-01  7.27207417E-01  1.00000000E+00  1.00000000E+00  1.86447366E-01
  8.73088966E-01  9.76214574E-01  3.48056130E-02
Coordinates of each shell                  R   N=         192
  9.96731771E-04  2.20234617E-01  2.76478681E-01  9.96731771E-04  2.20234617E-01
  2.76478681E-01  9.96731771E-04  2.20234617E-01  2.76478681E-01  9.96731771E-04
  2.20234617E-01  2.76478681E-01  9.96731771E-04  2.20234617E-01  2.76478681E-01
  9.96731771E-04  2.20234617E-01  2.76478681E-01  9.96731771E-04  2.20234617E-01
  2.76478681E-01  9.96731771E-04  2.20234617E-01  2.76478681E-01  9.96731771E-04
  2.20234617E-01  2.76478681E-01  9.96731771E-04  2.20234617E-01  2.76478681E-01
  9.96731771E-04  2.20234617E-01  2.76478681E-01  9.96731771E-04  2.20234617E-01
  2.76478681E-01  9.96731771E-04  2.20234617E-01  2.76478681E-01  9.96731771E-04
  2.20234617E-01  2.76478681E-01  1.26116075E-02  3.04296290E+00  4.88912571E-01
  1.26116075E-02  3.04296290E+00  4.88912571E-01  1.26116075E-02  3.04296290E+00
  4.88912571E-01  1.26116075E-02  3.04296290E+00  4.88912571E-01  1.26116075E-02
  3.04296290E+00  4.88912571E-01  1.26116075E-02  3.04296290E+00  4.88912571E-01
  1.26116075E-02  3.04296290E+00  4.88912571E-01  1.26116075E-02  3.04296290E+00
  4.88912571E-01  1.26116075E-02  3.04296290E+00  4.88912571E-01  1.26116075E-02
  3.04296290E+00  4.88912571E-01 -6.36173205E-03 -1.67265143E+00  2.42796422E+00
 -6.36173205E-03 -1.67265143E+00  2.42796422E+00 -6.36173205E-03 -1.67265143E+00
  2.42796422E+00 -6.36173205E-03 -1.67265143E+00  2.42796422E+00 -6.36173205E-03
 -1.67265143E+00  2.42796422E+00 -6.36173205E-03 -1.67265143E+00  2.42796422E+00
 -6.36173205E-03 -1.67265143E+00  2.42796422E+00 -6.36173205E-03 -1.67265143E+00
  2.42796422E+00 -6.36173205E-03 -1.67265143E+00  2.42796422E+00 -6.36173205E-03
 -1.67265143E+00  2.42796422E+00  2.47230083E+00 -6.20740897E-01 -1.60766835E+00
  2.47230083E+00 -6.20740897E-01 -1.60766835E+00  2.47230083E+00 -6.20740897E-01
 -1.60766835E+00  2.47230083E+00 -6.20740897E-01 -1.60766835E+00  2.47230083E+00
 -6.20740897E-01 -1.60766835E+00  2.47230083E+00 -6.20740897E-01 -1.60766835E+00
  2.47230083E+00 -6.20740897E-01 -1.60766835E+00  2.47230083E+00 -6.20740897E-01
 -1.60766835E+00  2.47230083E+00 -6.20740897E-01 -1.60766835E+00  2.47230083E+00
 -6.20740897E-01 -1.60766835E+00  2.91270208E+00 -2.25921824E+00 -8.83695398E-01
  2.91270208E+00 -2.25921824E+00 -8.83695398E-01  2.91270208E+00 -2.25921824E+00
 -8.83695398E-01  2.91270208E+00 -2.25921824E+00 -8.83695398E-01  2.91270208E+00
 -2.25921824E+00 -8.83695398E-01 -2.47799540E+00 -6.00701404E-01 -1.60688026E+00
 -2.47799540E+00 -6.00701404E-01 -1.60688026E+00 -2.47799540E+00 -6.00701404E-01
 -1.60688026E+00 -2.47799540E+00 -6.00701404E-01 -1.60688026E+00 -2.47799540E+00
 -6.00701404E-01 -1.60688026E+00 -2.47799540E+00 -6.00701404E-01 -1.60688026E+00
 -2.47799540E+00 -6.00701404E-01 -1.60688026E+00 -2.47799540E+00 -6.00701404E-01
 -1.60688026E+00 -2.47799540E+00 -6.00701404E-01 -1.60688026E+00 -2.47799540E+00
 -6.00701404E-01 -1.60688026E+00 -2.93209549E+00 -2.23525441E+00 -8.82110277E-01
 -2.93209549E+00 -2.23525441E+00 -8.82110277E-01 -2.93209549E+00 -2.23525441E+00
 -8.82110277E-01 -2.93209549E+00 -2.23525441E+00 -8.82110277E-01 -2.93209549E+00
 -2.23525441E+00 -8.82110277E-01
Num ILSW                                   I              100
ILSW                                       I   N=         100
           0           0           0           0           2           0
           0           0           0           0        4336          -1
           5           0           0           0           0           0
           0           0           0           0           0           0
           1           0           0           0           0           0
           0           0      100000           0          -1           0
           0           0           0           0           0           0
           0           0           0           1           0           0
           0 -2000000000           1           0           0           0
           0           0           4          52           0           0
           0           0          55           0           0           0
           0           0           0           7           0           1
           0           0           0           0           0           0
           0           0           0           0           0           0
           0           0           0           0           0           0
           0           0           0           0           0           0
           0           0           0           0
Num RLSW                                   I               52
RLSW                                       R   N=          52
  1.00000000E+00  1.00000000E+00  1.00000000E+00  1.00000000E+00  5.40000000E-01
  0.00000000E+00  0.00000000E+00  1.00000000E+00  0.00000000E+00  0.00000000E+00
  0.00000000E+00  0.00000000E+00  1.00000000E+00  0.00000000E+00  0.00000000E+00
  0.00000000E+00  0.00000000E+00  1.00000000E+00  0.00000000E+00  0.00000000E+00
  0.00000000E+00  0.00000000E+00  1.00000000E+00  0.00000000E+00  0.00000000E+00
  0.00000000E+00  0.00000000E+00  1.00000000E+00  0.00000000E+00  0.00000000E+00
  0.00000000E+00  0.00000000E+00  1.00000000E+00  0.00000000E+00  0.00000000E+00
  0.00000000E+00  0.00000000E+00  0.00000000E+00  1.00000000E+00  1.00000000E+00
  0.00000000E+00  1.00000000E+00  0.00000000E+00  0.00000000E+00  0.00000000E+00
  0.00000000E+00  0.00000000E+00  0.00000000E+00  0.00000000E+00  0.00000000E+00
  0.00000000E+00  0.00000000E+00
MxBond                                     I                4
NBond                                      I   N=           7
           4           1           1           2           1           2
           1
IBond                                      I   N=          28
           2           3           4           6           1           0
           0           0           1           0           0           0
           1           5           0           0           4           0
           0           0           1           7           0           0
           6           0           0           0
RBond                                      R   N=          28
  2.00000000E+00  2.00000000E+00  1.00000000E+00  1.00000000E+00  2.00000000E+00
  0.00000000E+00  0.00000000E+00  0.00000000E+00  2.00000000E+00  0.00000000E+00
  0.00000000E+00  0.00000000E+00  1.00000000E+00  1.00000000E+00  0.00000000E+00
  0.00000000E+00  1.00000000E+00  0.00000000E+00  0.00000000E+00  0.00000000E+00
  1.00000000E+00  1.00000000E+00  0.00000000E+00  0.00000000E+00  1.00000000E+00
  0.00000000E+00  0.00000000E+00  0.00000000E+00
Virial Ratio                               R      2.004228219006766E+00
SCF Energy                                 R     -6.436073792269722E+02
Total Energy                               R     -6.436073792269722E+02
RMS Density                                R      3.455161818350097E-09
Job Status                                 I                1
Nuclear derivative order                   I                0
External E-field                           R   N=          35
  0.00000000E+00  0.00000000E+00  0.00000000E+00 -8.00000000E-04  0.00000000E+00
  0.00000000E+00  0.00000000E+00  0.00000000E+00  0.00000000E+00  0.00000000E+00
  0.00000000E+00  0.00000000E+00  0.00000000E+00  0.00000000E+00  0.00000000E+00
  0.00000000E+00  0.00000000E+00  0.00000000E+00  0.00000000E+00  0.00000000E+00
  0.00000000E+00  0.00000000E+00  0.00000000E+00  0.00000000E+00  0.00000000E+00
  0.00000000E+00  0.00000000E+00  0.00000000E+00  0.00000000E+00  0.00000000E+00
  0.00000000E+00  0.00000000E+00  0.00000000E+00  0.00000000E+00  0.00000000E+00
IOpCl                                      I                0
IROHF                                      I                0
Alpha Orbital Energies                     R   N=         146
 -7.80119736E+01 -1.94739980E+01 -1.94739875E+01 -1.94070403E+01 -1.93984175E+01
 -6.78276459E+00 -4.90147994E+00 -4.90081155E+00 -4.89882927E+00 -9.98403993E-01
 -9.47736362E-01 -8.92199432E-01 -8.66564940E-01 -4.81170053E-01 -4.03895394E-01
 -3.73964765E-01 -3.31590525E-01 -3.22159355E-01 -2.64980484E-01 -2.55760087E-01
 -2.28082339E-01 -2.00766855E-01 -1.80081566E-01 -1.73409317E-01 -1.62483222E-01
  1.09590892E-01  1.27809772E-01  1.51195673E-01  1.57415682E-01  1.68615704E-01
  1.82733914E-01  1.93311541E-01  1.99013305E-01  2.21324454E-01  2.48682822E-01
  2.70138172E-01  2.98960120E-01  3.15405842E-01  3.20076091E-01  3.21819885E-01
  3.30932265E-01  3.34124205E-01  3.43178422E-01  3.48984687E-01  3.55380117E-01
  3.64703730E-01  3.67261454E-01  3.84714784E-01  3.85152619E-01  3.93383257E-01
  3.95841494E-01  4.03706512E-01  4.28382598E-01  4.36075239E-01  4.55075470E-01
  4.66459097E-01  4.96570521E-01  5.19846154E-01  5.30299709E-01  5.52400456E-01
  5.62266638E-01  5.69105309E-01  5.72176057E-01  6.05530189E-01  6.06768805E-01
  6.37519454E-01  6.48741734E-01  7.19682580E-01  7.25871464E-01  7.60937920E-01
  7.69846123E-01  7.74103169E-01  8.16198207E-01  8.26486010E-01  8.33893454E-01
  8.41019721E-01  8.66965323E-01  8.81165001E-01  9.10144691E-01  9.10562149E-01
  9.15431865E-01  9.42872671E-01  9.69733989E-01  9.88144190E-01  1.00475916E+00
  1.02270679E+00  1.03492102E+00  1.03716786E+00  1.03998259E+00  1.10571302E+00
  1.10783156E+00  1.15118884E+00  1.16609936E+00  1.20839314E+00  1.21269933E+00
  1.26307520E+00  1.27968493E+00  1.30332226E+00  1.30398004E+00  1.34353103E+00
  1.34908871E+00  1.37277363E+00  1.47075988E+00  1.53344546E+00  1.59561478E+00
  1.61228886E+00  1.61614715E+00  1.63217511E+00  1.68734119E+00  1.73405369E+00
  1.77775338E+00  1.81698339E+00  1.88331015E+00  1.92378076E+00  2.00052840E+00
  2.01828167E+00  2.29692942E+00  2.30357240E+00  2.42726086E+00  2.48134151E+00
  2.62244886E+00  2.62268910E+00  2.64284002E+00  2.69753520E+00  2.70024232E+00
  2.73149654E+00  2.73694668E+00  2.74576730E+00  2.77540617E+00  2.78163539E+00
  2.78770885E+00  2.88106473E+00  2.89723888E+00  2.92158519E+00  2.99703991E+00
  3.15701661E+00  3.21433521E+00  3.33935827E+00  3.45181107E+00  3.47326700E+00
  7.39539979E+00  4.29144958E+01  4.29472769E+01  4.31390632E+01  4.32101212E+01
  1.64487089E+02
Alpha MO coefficients                      R   N=       21316
  4.16400402E-01  6.48366540E-01  1.43335523E-02 -4.71443624E-03  3.00105623E-03
  7.96405570E-04 -1.75388274E-03 -9.76266950E-08 -2.24706715E-05 -3.10315801E-05
  1.36153066E-07  4.31548631E-05 -3.15593011E-05  5.97920598E-07  2.49433500E-05
  7.13049343E-04  5.09340739E-06  1.20107051E-03  1.48192371E-03 -2.19515156E-07
  2.22942762E-05 -1.69129612E-04 -1.14351581E-04 -6.76218212E-07 -1.47480290E-04
 -3.37285901E-04  2.66661148E-06  1.35016922E-04  7.22517585E-07  1.40626253E-04
  3.72533672E-04 -2.79321409E-06  4.47697841E-06 -1.65575015E-05  1.75614636E-04
 -5.30146224E-04 -1.10059626E-03  1.52388784E-07  3.46856579E-05  1.98626588E-05
  3.45612827E-06  8.57923114E-04 -8.38807304E-05  2.90645162E-06  7.46196414E-04
 -1.03887313E-04  5.65801022E-05 -5.93313217E-08 -1.52432950E-05  1.03610771E-04
 -8.54923809E-07  2.50039840E-04  4.83277923E-08  9.08825939E-06  4.12135402E-04
 -3.32516047E-06  4.25216568E-06 -1.57268719E-05  1.62722079E-04 -4.53395874E-04
 -8.42363133E-04 -3.32022565E-08 -8.57794447E-06  2.78285272E-05 -2.58837713E-06
 -6.56236168E-04  6.19572557E-04 -2.21146865E-06 -5.71064577E-04  4.71914383E-04
 -4.66164169E-05  3.72414811E-07  9.54339990E-05  4.61461166E-05 -3.64105169E-07
 -1.72887671E-04  1.72048785E-06  4.36652683E-04  1.76291092E-04 -1.36922170E-06
  3.19118591E-06 -1.16690991E-05  8.36625263E-05 -2.11859526E-04  1.33490991E-03
  1.13389755E-05  8.41262819E-06 -4.69416569E-06 -7.56750641E-05  5.62017328E-05
 -8.15690783E-05 -1.49970608E-04  4.56966439E-06  1.32578878E-04  1.54498165E-07
  4.74822950E-05  5.53018608E-06 -1.37973520E-05  3.26866470E-05 -1.45971946E-04
  1.13194969E-04 -4.37164669E-05 -3.19980851E-05 -1.70909300E-04 -1.01151974E-05
  4.40274181E-04  9.56298206E-05 -9.62061683E-05  6.41677255E-05  4.13030637E-05
 -4.38258901E-04  1.07294321E-04  1.12423871E-04  3.18963296E-06 -1.16631642E-05
  8.35928725E-05 -2.11672512E-04  1.33548501E-03 -1.12793606E-05  8.50731209E-06
 -4.68610031E-06  7.65292753E-05  5.55945366E-05 -8.12885668E-05  1.50543011E-04
  3.28098553E-06  1.32857506E-04  1.85347119E-07 -4.73857590E-05  5.94454179E-06
 -1.43573042E-05 -3.24465295E-05 -1.45882784E-04 -1.13441006E-04 -4.29116333E-05
 -2.90091004E-05  1.71338733E-04 -1.01474935E-05  4.39532513E-04  9.52588720E-05
  9.66774517E-05  6.33425912E-05  4.12313392E-05  4.38881919E-04  1.03603627E-04
  1.12030918E-04  1.10935769E-06 -1.75065723E-06  3.41739709E-05 -1.21692757E-04
 -7.15558786E-04  8.15373476E-03 -6.27410258E-04  2.31422707E-05 -1.53249421E-05
 -1.47281550E-05 -6.63316666E-04  2.66177052E-04  3.13196084E-04  5.57423250E-03
 -1.89290186E-03 -2.32247584E-03  5.21626792E-03 -2.28578808E-03 -2.96117461E-03
  8.93684562E-04 -1.35428534E-04 -6.42504413E-05 -7.97018442E-05 -1.73284921E-03
  2.53879719E-04  5.57116823E-04 -1.10633862E-03  1.00731941E-05 -5.59067393E-04
 -1.14638978E-04 -4.43642615E-04 -6.70880256E-04 -6.62478176E-06 -2.31856699E-05
  5.31145616E-05  1.21346075E-04  1.22562522E-03  2.40153926E-05 -5.34081550E-05
 -3.50269107E-05 -5.68783952E-04 -2.34566683E-04  4.19466247E-04 -6.19082286E-04
 -2.42235482E-04  7.72243813E-04 -1.43341399E-05  3.04036708E-05 -2.75952481E-06
 -3.85543649E-05  3.31218890E-05 -5.64329639E-05  1.90585572E-04 -4.35586932E-04
 -7.27348957E-05  5.29829894E-04 -5.70841231E-06 -3.59906530E-05  1.62436046E-04
 -4.62510607E-04 -3.88866691E-04  2.31113654E-05  3.48321283E-07 -5.09020882E-05
 -8.80510855E-04  1.56556957E-04  7.14764384E-04 -9.60698989E-04  4.09042740E-04
  7.11259601E-04 -8.06749352E-06  8.38075127E-05 -2.14542954E-05 -3.28248572E-05
 -1.69552917E-05 -5.19515562E-04  5.59737504E-04  5.58445615E-05 -1.73166006E-04
 -4.01314721E-04  4.02906678E-01  6.36151080E-01  1.81769362E-02 -1.07152110E-02
 -7.93675213E-03 -4.10938143E-04 -7.06362163E-04  8.78723544E-04  4.14852447E-03
 -1.73476559E-04 -4.21705949E-03  8.27275037E-04 -5.46377996E-04 -1.46736298E-03
 -1.08462353E-05  2.52275719E-04 -4.25330290E-05 -1.23166404E-04  7.33920802E-05
 -5.37415929E-04  1.80467547E-03 -1.95498639E-04 -8.91348146E-04  5.01873473E-04
  5.47938197E-04  2.90913597E-03 -2.29673930E-04 -1.94888199E-04 -1.82408401E-04
  4.74641668E-04 -4.86687625E-04  1.73434086E-03 -4.27192720E-04 -1.16881297E-01
 -1.84555966E-01 -5.20929998E-03  3.04723931E-03  2.27575120E-03 -8.18401948E-05
  1.98784304E-04 -2.49023205E-04  6.03080746E-04  1.92557976E-04  1.44682779E-03
 -1.01752572E-03  1.02928691E-03  1.02645841E-03  5.79227324E-06  1.17675425E-04
  1.59610848E-05 -7.45556668E-07  3.90795053E-05  7.42854061E-04  5.14137003E-04
  3.18261847E-04 -5.23236174E-05  1.94071949E-04 -1.25858381E-04 -7.84855699E-04
  2.39590567E-04 -1.13367552E-04  2.36368426E-05 -1.53504728E-04 -2.14557288E-04
 -9.77666710E-04  4.66597519E-05  2.01510223E-06 -3.18018035E-06  6.20706246E-05
 -2.20987204E-04 -1.30086547E-03  1.48100293E-02 -1.14624252E-03 -1.28876402E-05
 -2.76271882E-05 -2.67506378E-05  3.67770797E-04  4.77351703E-04  5.68867321E-04
 -3.08518953E-03 -3.38512845E-03 -4.21576039E-03 -2.89334454E-03 -4.10805497E-03
 -5.37670071E-03 -4.93230981E-04 -2.36441796E-04 -1.16554951E-04 -1.46208234E-04
  9.55204639E-04  4.43830293E-04  1.03382311E-03  5.97850503E-04  1.85000440E-05
  3.06806461E-04 -2.14285971E-04 -7.91627093E-04  3.77761360E-04 -1.20390624E-05
 -4.21242926E-05  9.64485072E-05  2.20909533E-04  2.23199777E-03 -1.37710801E-05
 -9.67911779E-05 -6.36574123E-05  3.10864481E-04 -4.31956525E-04  7.61879738E-04
  3.38565123E-04 -4.46312832E-04  1.40337904E-03 -2.60340962E-05 -1.67427716E-05
 -4.65505128E-06 -7.06967797E-05 -1.74522728E-05 -1.02108424E-04 -1.09177551E-04
 -7.89623277E-04 -1.42290182E-04 -2.90268391E-04 -1.03634732E-05 -6.54011814E-05
  2.95273242E-04 -8.40851607E-04 -7.09156036E-04 -1.27653275E-05  8.53569077E-07
 -9.24895921E-05  4.86458010E-04  2.75704579E-04  1.29885630E-03  5.33040144E-04
  7.33028495E-04  1.29289796E-03 -1.46016616E-05 -4.63046582E-05 -3.81784915E-05
 -5.93411204E-05  9.95629573E-06 -9.43770840E-04 -3.07919443E-04  1.06975451E-04
 -3.07149329E-04  2.24153177E-04  1.16884635E-01  1.84535951E-01  5.34838997E-03
 -3.17999046E-03 -2.32897109E-03 -1.61558288E-04 -2.12855012E-04  2.61938854E-04
  1.91588861E-03  1.23905177E-04 -9.57842685E-04  1.73779068E-03  8.62780820E-04
  2.85918166E-04  6.67852881E-08  2.06385619E-05 -6.88778233E-06 -7.96800287E-05
  2.48176516E-07  5.39286448E-04  5.37879593E-04  2.58012513E-04 -6.30502512E-04
  8.92270984E-05  1.98243852E-04  9.11190090E-04  1.38843243E-04  1.09095202E-05
 -8.86396235E-05  1.18953038E-04 -6.28627130E-05 -6.17523314E-05 -2.15609549E-04
  4.02907686E-01  6.36145365E-01  1.82167131E-02 -1.07524546E-02 -7.94575526E-03
  4.27736340E-04 -7.13781176E-04  8.82542963E-04 -4.52943675E-03 -4.28574441E-05
 -4.07237277E-03 -1.62711390E-03  1.42124982E-05 -1.08464436E-03 -8.96296162E-06
 -2.24373440E-04 -3.77116165E-05 -1.47659810E-04 -5.97731687E-05 -1.64323661E-04
 -1.81125028E-03 -1.19810649E-05 -1.09787862E-03 -4.53745683E-04  5.69451811E-04
  2.94508934E-03 -1.18967816E-04  1.57382211E-04 -2.02398918E-04  4.64402030E-04
  4.56612317E-04  1.42763546E-03 -4.77068326E-04  2.91358389E-06  8.50664474E-07
  5.01587294E-05 -2.76065206E-04  1.30718218E-04  1.99660442E-02 -2.15420025E-04
 -2.20952056E-07 -5.52744491E-05  3.56894130E-05  2.48371064E-06  6.10613210E-04
 -2.95018251E-04 -2.82042678E-05 -7.10416675E-03  5.52307125E-03 -4.64857844E-05
 -1.15872268E-02  5.03870621E-03  1.63120198E-06  3.82235662E-04 -5.43827749E-04
  9.35461962E-04 -6.61358819E-06 -1.72506680E-03 -4.90290296E-04  3.74383070E-06
 -8.16151959E-04  4.60002337E-06  1.19953697E-03 -2.72142919E-04  2.16306851E-06
 -1.17926191E-04 -1.97695346E-04 -5.41361784E-07  7.38884397E-04  7.07837884E-03