 Entering Gaussian System, Link 0=g16
 Initial command:
 /apps/gaussian/g16c01/g16/l1.exe "/jobfs/13928612.gadi-pbs/Gau-1417078.inp" -scrdir="/jobfs/13928612.gadi-pbs/"
 Entering Link 1 = /apps/gaussian/g16c01/g16/l1.exe PID=   1417079.
  
 Copyright (c) 1988-2019, Gaussian, Inc.  All Rights Reserved.
  
 This is part of the Gaussian(R) 16 program.  It is based on
 the Gaussian(R) 09 system (copyright 2009, Gaussian, Inc.),
 the Gaussian(R) 03 system (copyright 2003, Gaussian, Inc.),
 the Gaussian(R) 98 system (copyright 1998, Gaussian, Inc.),
 the Gaussian(R) 94 system (copyright 1995, Gaussian, Inc.),
 the Gaussian 92(TM) system (copyright 1992, Gaussian, Inc.),
 the Gaussian 90(TM) system (copyright 1990, Gaussian, Inc.),
 the Gaussian 88(TM) system (copyright 1988, Gaussian, Inc.),
 the Gaussian 86(TM) system (copyright 1986, Carnegie Mellon
 University), and the Gaussian 82(TM) system (copyright 1983,
 Carnegie Mellon University). Gaussian is a federally registered
 trademark of Gaussian, Inc.
  
 This software contains proprietary and confidential information,
 including trade secrets, belonging to Gaussian, Inc.
  
 This software is provided under written license and may be
 used, copied, transmitted, or stored only in accord with that
 written license.
  
 The following legend is applicable only to US Government
 contracts under FAR:
  
                    RESTRICTED RIGHTS LEGEND
  
 Use, reproduction and disclosure by the US Government is
 subject to restrictions as set forth in subparagraphs (a)
 and (c) of the Commercial Computer Software - Restricted
 Rights clause in FAR 52.227-19.
  
 Gaussian, Inc.
 340 Quinnipiac St., Bldg. 40, Wallingford CT 06492
  
  
 ---------------------------------------------------------------
 Warning -- This program may not be used in any manner that
 competes with the business of Gaussian, Inc. or will provide
 assistance to any competitor of Gaussian, Inc.  The licensee
 of this program is prohibited from giving any competitor of
 Gaussian, Inc. access to this program.  By using this program,
 the user acknowledges that Gaussian, Inc. is engaged in the
 business of creating and licensing software in the field of
 computational chemistry and represents and warrants to the
 licensee that it is not a competitor of Gaussian, Inc. and that
 it will not use this program in any manner prohibited above.
 ---------------------------------------------------------------
  

 Cite this work as:
 Gaussian 16, Revision C.01,
 M. J. Frisch, G. W. Trucks, H. B. Schlegel, G. E. Scuseria, 
 M. A. Robb, J. R. Cheeseman, G. Scalmani, V. Barone, 
 G. A. Petersson, H. Nakatsuji, X. Li, M. Caricato, A. V. Marenich, 
 J. Bloino, B. G. Janesko, R. Gomperts, B. Mennucci, H. P. Hratchian, 
 J. V. Ortiz, A. F. Izmaylov, J. L. Sonnenberg, D. Williams-Young, 
 F. Ding, F. Lipparini, F. Egidi, J. Goings, B. Peng, A. Petrone, 
 T. Henderson, D. Ranasinghe, V. G. Zakrzewski, J. Gao, N. Rega, 
 G. Zheng, W. Liang, M. Hada, M. Ehara, K. Toyota, R. Fukuda, 
 J. Hasegawa, M. Ishida, T. Nakajima, Y. Honda, O. Kitao, H. Nakai, 
 T. Vreven, K. Throssell, J. A. Montgomery, Jr., J. E. Peralta, 
 F. Ogliaro, M. J. Bearpark, J. J. Heyd, E. N. Brothers, K. N. Kudin, 
 V. N. Staroverov, T. A. Keith, R. Kobayashi, J. Normand, 
 K. Raghavachari, A. P. Rendell, J. C. Burant, S. S. Iyengar, 
 J. Tomasi, M. Cossi, J. M. Millam, M. Klene, C. Adamo, R. Cammi, 
 J. W. Ochterski, R. L. Martin, K. Morokuma, O. Farkas, 
 J. B. Foresman, and D. J. Fox, Gaussian, Inc., Wallingford CT, 2019.
 
 ******************************************
 Gaussian 16:  ES64L-G16RevC.01  3-Jul-2019
                30-Nov-2020 
 ******************************************
 %chk=spec.chk
 %mem=160gb
 %nproc=48
 Will use up to   48 processors via shared memory.
 --------------------------------------------------------
 #P M062X/Gen field=Z-8 int=(grid=ultrafine) polar=Dipole
 --------------------------------------------------------
 1/38=1,172=1/1;
 2/12=2,17=6,18=5,40=1/2;
 3/5=7,11=2,14=3,15=-8,25=1,30=1,74=-55,75=-5/1,2,3;
 4//1;
 5/5=2,38=5,98=1/2;
 8/6=4,10=90,11=11/1;
 10/6=1,13=10,17=1/2;
 6/7=2,8=2,9=2,10=2,28=1/1;
 99/5=1,9=1/99;
 Leave Link    1 at Mon Nov 30 17:35:26 2020, MaxMem= 21474836480 cpu:               2.5 elap:               0.2
 (Enter /apps/gaussian/g16c01/g16/l101.exe)
 ---
 dhp
 ---
 Symbolic Z-matrix:
 Charge = -1 Multiplicity = 1
 P                     0.9387    1.01586   0.00735 
 O                    -0.55886   0.98478  -0.00791 
 O                     1.866     0.94671  -1.19053 
 O                     1.4667   -0.20955   1.06658 
 H                     2.3113   -0.46062   0.6465 
 O                     1.41458   2.40255   0.8754 
 H                     2.24958   2.62345   0.42044 
 
 ITRead=  0  0  0  0  0  0  0
 MicOpt= -1 -1 -1 -1 -1 -1 -1
 NAtoms=      7 NQM=        7 NQMF=       0 NMMI=      0 NMMIF=      0
                NMic=       0 NMicF=      0.
                    Isotopes and Nuclear Properties:
 (Nuclear quadrupole moments (NQMom) in fm**2, nuclear magnetic moments (NMagM)
  in nuclear magnetons)

  Atom         1           2           3           4           5           6           7
 IAtWgt=          31          16          16          16           1          16           1
 AtmWgt=  30.9737634  15.9949146  15.9949146  15.9949146   1.0078250  15.9949146   1.0078250
 NucSpn=           1           0           0           0           1           0           1
 AtZEff=  -0.0000000  -0.0000000  -0.0000000  -0.0000000  -0.0000000  -0.0000000  -0.0000000
 NQMom=    0.0000000   0.0000000   0.0000000   0.0000000   0.0000000   0.0000000   0.0000000
 NMagM=    1.1316000   0.0000000   0.0000000   0.0000000   2.7928460   0.0000000   2.7928460
 AtZNuc=  15.0000000   8.0000000   8.0000000   8.0000000   1.0000000   8.0000000   1.0000000
 Leave Link  101 at Mon Nov 30 17:35:27 2020, MaxMem= 21474836480 cpu:               7.0 elap:               0.3
 (Enter /apps/gaussian/g16c01/g16/l202.exe)
                          Input orientation:                          
 ---------------------------------------------------------------------
 Center     Atomic      Atomic             Coordinates (Angstroms)
 Number     Number       Type             X           Y           Z
 ---------------------------------------------------------------------
      1         15           0        0.938700    1.015860    0.007350
      2          8           0       -0.558860    0.984780   -0.007910
      3          8           0        1.866000    0.946710   -1.190530
      4          8           0        1.466700   -0.209550    1.066580
      5          1           0        2.311300   -0.460620    0.646500
      6          8           0        1.414580    2.402550    0.875400
      7          1           0        2.249580    2.623450    0.420440
 ---------------------------------------------------------------------
                    Distance matrix (angstroms):
                    1          2          3          4          5
     1  P    0.000000
     2  O    1.497960   0.000000
     3  O    1.516438   2.698145   0.000000
     4  O    1.703638   2.585314   2.567279   0.000000
     5  H    2.114837   3.279520   2.356597   0.976142   0.000000
     6  O    1.703785   2.585493   2.567356   2.619605   3.009027
     7  H    2.115040   3.279643   2.356653   3.009367   3.092960
                    6          7
     6  O    0.000000
     7  H    0.976223   0.000000
 Stoichiometry    H2O4P(1-)
 Framework group  C1[X(H2O4P)]
 Deg. of freedom    15
 Full point group                 C1      NOp   1
 Largest Abelian subgroup         C1      NOp   1
 Largest concise Abelian subgroup C1      NOp   1
                         Standard orientation:                         
 ---------------------------------------------------------------------
 Center     Atomic      Atomic             Coordinates (Angstroms)
 Number     Number       Type             X           Y           Z
 ---------------------------------------------------------------------
      1         15           0        0.000527    0.116543    0.146306
      2          8           0        0.006674    1.610267    0.258721
      3          8           0       -0.003366   -0.885129    1.284823
      4          8           0        1.308285   -0.328482   -0.850741
      5          1           0        1.541336   -1.195527   -0.467631
      6          8           0       -1.311299   -0.317877   -0.850324
      7          1           0       -1.551598   -1.182846   -0.466793
 ---------------------------------------------------------------------
 Rotational constants (GHZ):           4.5418526           4.5017355           4.1976655
 Leave Link  202 at Mon Nov 30 17:35:27 2020, MaxMem= 21474836480 cpu:               2.9 elap:               0.2
 (Enter /apps/gaussian/g16c01/g16/l301.exe)
 General basis read from cards:  (5D, 7F)
 Centers:       5      7
 S 4 1.00
     Exponent=  3.3685014000D+01 Coefficients=  6.0680000000D-03
     Exponent=  5.0947880000D+00 Coefficients=  4.5316000000D-02
     Exponent=  1.1587860000D+00 Coefficients=  2.0284600000D-01
     Exponent=  3.2584000000D-01 Coefficients=  5.0370900000D-01
 S 1 1.00
     Exponent=  1.0274100000D-01 Coefficients=  1.0000000000D+00
 S 1 1.00
     Exponent=  3.2400000000D-02 Coefficients=  1.0000000000D+00
 P 2 1.00
     Exponent=  1.1588000000D+00 Coefficients=  1.8844000000D-01
     Exponent=  3.2580000000D-01 Coefficients=  8.8242000000D-01
 P 2 1.00
     Exponent=  1.0270000000D-01 Coefficients=  1.1780000000D-01
     Exponent=  3.2400000000D-02 Coefficients=  4.2000000000D-03
 ****
 Centers:       2      3      4      6
 S 5 1.00
     Exponent=  1.0662285000D+04 Coefficients=  7.9900000000D-04
     Exponent=  1.5997097000D+03 Coefficients=  6.1530000000D-03
     Exponent=  3.6472526000D+02 Coefficients=  3.1157000000D-02
     Exponent=  1.0365179000D+02 Coefficients=  1.1559600000D-01
     Exponent=  3.3905805000D+01 Coefficients=  3.0155200000D-01
 S 2 1.00
     Exponent=  1.2287469000D+01 Coefficients=  4.4487000000D-01
     Exponent=  4.7568050000D+00 Coefficients=  2.4317200000D-01
 S 1 1.00
     Exponent=  1.0042710000D+00 Coefficients=  1.0000000000D+00
 S 1 1.00
     Exponent=  3.0068600000D-01 Coefficients=  1.0000000000D+00
 S 1 1.00
     Exponent=  9.0030000000D-02 Coefficients=  1.0000000000D+00
 P 4 1.00
     Exponent=  3.4856463000D+01 Coefficients=  1.5648000000D-02
     Exponent=  7.8431310000D+00 Coefficients=  9.8197000000D-02
     Exponent=  2.3062490000D+00 Coefficients=  3.0776800000D-01
     Exponent=  7.2316400000D-01 Coefficients=  4.9247000000D-01
 P 1 1.00
     Exponent=  2.1488200000D-01 Coefficients=  1.0000000000D+00
 P 1 1.00
     Exponent=  6.3850000000D-02 Coefficients=  1.0000000000D+00
 D 2 1.00
     Exponent=  2.3062000000D+00 Coefficients=  2.0270000000D-01
     Exponent=  7.2320000000D-01 Coefficients=  5.7910000000D-01
 D 2 1.00
     Exponent=  2.1490000000D-01 Coefficients=  7.8545000000D-01
     Exponent=  6.3900000000D-02 Coefficients=  5.3387000000D-01
 ****
 Centers:       1
 S 6 1.00
     Exponent=  7.7492430000D+04 Coefficients=  7.8700000000D-04
     Exponent=  1.1605790000D+04 Coefficients=  6.1090000000D-03
     Exponent=  2.6459600000D+03 Coefficients=  3.1368000000D-02
     Exponent=  7.5498000000D+02 Coefficients=  1.2429100000D-01
     Exponent=  2.4875000000D+02 Coefficients=  3.8068200000D-01
     Exponent=  9.1157000000D+01 Coefficients=  5.5998900000D-01
 S 3 1.00
     Exponent=  9.1157000000D+01 Coefficients=  1.6399700000D-01
     Exponent=  3.6226000000D+01 Coefficients=  6.2592700000D-01
     Exponent=  1.5211000000D+01 Coefficients=  2.6221100000D-01
 S 1 1.00
     Exponent=  4.7138000000D+00 Coefficients=  1.0000000000D+00
 S 1 1.00
     Exponent=  1.7827000000D+00 Coefficients=  1.0000000000D+00
 S 1 1.00
     Exponent=  3.4250000000D-01 Coefficients=  1.0000000000D+00
 S 1 1.00
     Exponent=  1.2460000000D-01 Coefficients=  1.0000000000D+00
 S 1 1.00
     Exponent=  4.5300000000D-02 Coefficients=  1.0000000000D+00
 P 6 1.00
     Exponent=  3.8484000000D+02 Coefficients=  3.7650000000D-03
     Exponent=  9.0552000000D+01 Coefficients=  2.9010000000D-02
     Exponent=  2.8806000000D+01 Coefficients=  1.2295300000D-01
     Exponent=  1.0688000000D+01 Coefficients=  3.0647000000D-01
     Exponent=  4.2521000000D+00 Coefficients=  4.4134900000D-01
     Exponent=  1.7405000000D+00 Coefficients=  2.9581700000D-01
 P 1 1.00
     Exponent=  5.9790000000D-01 Coefficients=  1.0000000000D+00
 P 1 1.00
     Exponent=  2.2920000000D-01 Coefficients=  1.0000000000D+00
 P 1 1.00
     Exponent=  8.3800000000D-02 Coefficients=  1.0000000000D+00
 P 1 1.00
     Exponent=  3.0600000000D-02 Coefficients=  1.0000000000D+00
 D 2 1.00
     Exponent=  5.9790000000D-01 Coefficients=  3.0930000000D-01
     Exponent=  2.2920000000D-01 Coefficients=  9.7150000000D-01
 D 2 1.00
     Exponent=  8.3800000000D-02 Coefficients=  1.2780000000D-01
     Exponent=  3.0600000000D-02 Coefficients=  7.7400000000D-02
 ****
 Ernie: Thresh=  0.10000D-02 Tol=  0.10000D-05 Strict=F.
 The following finite field(s) will be applied:
 An electric field of              0.0000  0.0000 -0.0008
 In input orientation:  5.07115277D-05  5.91578734D-05  7.96196387D-04
 There are   156 symmetry adapted cartesian basis functions of A   symmetry.
 There are   146 symmetry adapted basis functions of A   symmetry.
   146 basis functions,   312 primitive gaussians,   156 cartesian basis functions
    25 alpha electrons       25 beta electrons
       nuclear repulsion energy       262.2134740329 Hartrees.
 IExCor= 4336 DFT=T Ex+Corr=M062X ExCW=0 ScaHFX=  0.540000
 ScaDFX=  1.000000  1.000000  1.000000  1.000000 ScalE2=  1.000000  1.000000
 IRadAn=      5 IRanWt=     -1 IRanGd=            0 ICorTp=0 IEmpDi=  4
 NAtoms=    7 NActive=    7 NUniq=    7 SFac= 1.00D+00 NAtFMM=   60 NAOKFM=F Big=F
 Integral buffers will be    131072 words long.
 Raffenetti 2 integral format.
 Two-electron integral symmetry is turned on.
 Leave Link  301 at Mon Nov 30 17:35:27 2020, MaxMem= 21474836480 cpu:               2.8 elap:               0.2
 (Enter /apps/gaussian/g16c01/g16/l302.exe)
 NPDir=0 NMtPBC=     1 NCelOv=     1 NCel=       1 NClECP=     1 NCelD=      1
         NCelK=      1 NCelE2=     1 NClLst=     1 CellRange=     0.0.
 One-electron integrals computed using PRISM.
 One-electron integral symmetry used in STVInt
 NBasis=   146 RedAO= T EigKep=  2.42D-04  NBF=   146
 NBsUse=   146 1.00D-06 EigRej= -1.00D+00 NBFU=   146
 Precomputing XC quadrature grid using
 IXCGrd= 4 IRadAn=           5 IRanWt=          -1 IRanGd=           0 AccXCQ= 0.00D+00.
 Generated NRdTot=       0 NPtTot=           0 NUsed=           0 NTot=          32
 NSgBfM=   154   154   154   154   154 MxSgAt=     7 MxSgA2=     7.
 Leave Link  302 at Mon Nov 30 17:35:29 2020, MaxMem= 21474836480 cpu:              44.9 elap:               2.2
 (Enter /apps/gaussian/g16c01/g16/l303.exe)
 DipDrv:  MaxL=1.
 The nuclear repulsion energy is now       262.2134740329 hartrees.
 Leave Link  303 at Mon Nov 30 17:35:30 2020, MaxMem= 21474836480 cpu:               8.1 elap:               0.4
 (Enter /apps/gaussian/g16c01/g16/l401.exe)
 ExpMin= 3.06D-02 ExpMax= 7.75D+04 ExpMxC= 2.65D+03 IAcc=3 IRadAn=         5 AccDes= 0.00D+00
 Harris functional with IExCor= 1009 and IRadAn=       5 diagonalized for initial guess.
 HarFok:  IExCor= 1009 AccDes= 0.00D+00 IRadAn=         5 IDoV= 1 UseB2=F ITyADJ=14
 ICtDFT=  3500011 ScaDFX=  1.000000  1.000000  1.000000  1.000000
 FoFCou: FMM=F IPFlag=           0 FMFlag=      100000 FMFlg1=           0
         NFxFlg=           0 DoJE=T BraDBF=F KetDBF=T FulRan=T
         wScrn=  0.000000 ICntrl=       500 IOpCl=  0 I1Cent=   200000004 NGrid=           0
         NMat0=    1 NMatS0=      1 NMatT0=    0 NMatD0=    1 NMtDS0=    0 NMtDT0=    0
 Petite list used in FoFCou.
 Harris En= -643.550471565544    
 JPrj=0 DoOrth=F DoCkMO=F.
 Leave Link  401 at Mon Nov 30 17:35:31 2020, MaxMem= 21474836480 cpu:              40.2 elap:               1.7
 (Enter /apps/gaussian/g16c01/g16/l502.exe)
 Keep R1 ints in memory in canonical form, NReq=104885708.
 FoFCou: FMM=F IPFlag=           0 FMFlag=           0 FMFlg1=           0
         NFxFlg=           0 DoJE=F BraDBF=F KetDBF=F FulRan=T
         wScrn=  0.000000 ICntrl=       600 IOpCl=  0 I1Cent=           0 NGrid=           0
         NMat0=    1 NMatS0=  10731 NMatT0=    0 NMatD0=    1 NMtDS0=    0 NMtDT0=    0
 Symmetry not used in FoFCou.
 Two-electron integral symmetry not used.
 Closed shell SCF:
 Using DIIS extrapolation, IDIIS=  1040.
 NGot= 21474836480 LenX= 21417196084 LenY= 21417171307
 Requested convergence on RMS density matrix=1.00D-08 within 128 cycles.
 Requested convergence on MAX density matrix=1.00D-06.
 Requested convergence on             energy=1.00D-06.
 No special actions if energy rises.

 Cycle   1  Pass 1  IDiag  1:
 E= -643.255526807556    
 DIIS: error= 4.21D-02 at cycle   1 NSaved=   1.
 NSaved= 1 IEnMin= 1 EnMin= -643.255526807556     IErMin= 1 ErrMin= 4.21D-02
 ErrMax= 4.21D-02  0.00D+00 EMaxC= 1.00D-01 BMatC= 5.11D-01 BMatP= 5.11D-01
 IDIUse=3 WtCom= 5.79D-01 WtEn= 4.21D-01
 Coeff-Com:  0.100D+01
 Coeff-En:   0.100D+01
 Coeff:      0.100D+01
 Gap=     0.268 Goal=   None    Shift=    0.000
 GapD=    0.268 DampG=1.000 DampE=0.500 DampFc=0.5000 IDamp=-1.
 Damping current iteration by 5.00D-01
 RMSDP=1.05D-02 MaxDP=3.03D-01              OVMax= 2.26D-01

 Cycle   2  Pass 1  IDiag  1:
 E= -643.396555446301     Delta-E=       -0.141028638745 Rises=F Damp=T
 DIIS: error= 9.21D-03 at cycle   2 NSaved=   2.
 NSaved= 2 IEnMin= 2 EnMin= -643.396555446301     IErMin= 2 ErrMin= 9.21D-03
 ErrMax= 9.21D-03  0.00D+00 EMaxC= 1.00D-01 BMatC= 2.87D-02 BMatP= 5.11D-01
 IDIUse=3 WtCom= 9.08D-01 WtEn= 9.21D-02
 Coeff-Com:  0.922D-01 0.908D+00
 Coeff-En:   0.208D+00 0.792D+00
 Coeff:      0.103D+00 0.897D+00
 Gap=     0.271 Goal=   None    Shift=    0.000
 RMSDP=1.90D-03 MaxDP=6.99D-02 DE=-1.41D-01 OVMax= 1.42D-01

 Cycle   3  Pass 1  IDiag  1:
 E= -643.602780849733     Delta-E=       -0.206225403433 Rises=F Damp=F
 DIIS: error= 4.83D-03 at cycle   3 NSaved=   3.
 NSaved= 3 IEnMin= 3 EnMin= -643.602780849733     IErMin= 3 ErrMin= 4.83D-03
 ErrMax= 4.83D-03  0.00D+00 EMaxC= 1.00D-01 BMatC= 6.04D-03 BMatP= 2.87D-02
 IDIUse=3 WtCom= 9.52D-01 WtEn= 4.83D-02
 Coeff-Com: -0.713D-02 0.255D+00 0.752D+00
 Coeff-En:   0.000D+00 0.000D+00 0.100D+01
 Coeff:     -0.678D-02 0.242D+00 0.764D+00
 Gap=     0.267 Goal=   None    Shift=    0.000
 RMSDP=8.04D-04 MaxDP=2.59D-02 DE=-2.06D-01 OVMax= 2.31D-02

 Cycle   4  Pass 1  IDiag  1:
 E= -643.604754360293     Delta-E=       -0.001973510560 Rises=F Damp=F
 DIIS: error= 3.11D-03 at cycle   4 NSaved=   4.
 NSaved= 4 IEnMin= 4 EnMin= -643.604754360293     IErMin= 4 ErrMin= 3.11D-03
 ErrMax= 3.11D-03  0.00D+00 EMaxC= 1.00D-01 BMatC= 3.57D-03 BMatP= 6.04D-03
 IDIUse=3 WtCom= 9.69D-01 WtEn= 3.11D-02
 Coeff-Com: -0.147D-01 0.400D-01 0.453D+00 0.522D+00
 Coeff-En:   0.000D+00 0.000D+00 0.376D+00 0.624D+00
 Coeff:     -0.142D-01 0.387D-01 0.450D+00 0.525D+00
 Gap=     0.273 Goal=   None    Shift=    0.000
 RMSDP=3.19D-04 MaxDP=8.86D-03 DE=-1.97D-03 OVMax= 8.95D-03

 Cycle   5  Pass 1  IDiag  1:
 E= -643.607371217262     Delta-E=       -0.002616856969 Rises=F Damp=F
 DIIS: error= 1.80D-04 at cycle   5 NSaved=   5.
 NSaved= 5 IEnMin= 5 EnMin= -643.607371217262     IErMin= 5 ErrMin= 1.80D-04
 ErrMax= 1.80D-04  0.00D+00 EMaxC= 1.00D-01 BMatC= 8.33D-06 BMatP= 3.57D-03
 IDIUse=3 WtCom= 9.98D-01 WtEn= 1.80D-03
 Coeff-Com: -0.100D-02 0.108D-03 0.549D-01 0.877D-01 0.858D+00
 Coeff-En:   0.000D+00 0.000D+00 0.000D+00 0.000D+00 0.100D+01
 Coeff:     -0.100D-02 0.108D-03 0.548D-01 0.875D-01 0.859D+00
 Gap=     0.272 Goal=   None    Shift=    0.000
 RMSDP=4.29D-05 MaxDP=1.01D-03 DE=-2.62D-03 OVMax= 6.98D-04

 Cycle   6  Pass 1  IDiag  1:
 E= -643.607378009204     Delta-E=       -0.000006791942 Rises=F Damp=F
 DIIS: error= 6.34D-05 at cycle   6 NSaved=   6.
 NSaved= 6 IEnMin= 6 EnMin= -643.607378009204     IErMin= 6 ErrMin= 6.34D-05
 ErrMax= 6.34D-05  0.00D+00 EMaxC= 1.00D-01 BMatC= 1.32D-06 BMatP= 8.33D-06
 IDIUse=1 WtCom= 1.00D+00 WtEn= 0.00D+00
 Coeff-Com:  0.203D-03-0.174D-02 0.250D-02 0.120D-01 0.337D+00 0.650D+00
 Coeff:      0.203D-03-0.174D-02 0.250D-02 0.120D-01 0.337D+00 0.650D+00
 Gap=     0.272 Goal=   None    Shift=    0.000
 RMSDP=1.36D-05 MaxDP=5.52D-04 DE=-6.79D-06 OVMax= 2.77D-04

 Cycle   7  Pass 1  IDiag  1:
 E= -643.607379093946     Delta-E=       -0.000001084742 Rises=F Damp=F
 DIIS: error= 2.09D-05 at cycle   7 NSaved=   7.
 NSaved= 7 IEnMin= 7 EnMin= -643.607379093946     IErMin= 7 ErrMin= 2.09D-05
 ErrMax= 2.09D-05  0.00D+00 EMaxC= 1.00D-01 BMatC= 1.42D-07 BMatP= 1.32D-06
 IDIUse=1 WtCom= 1.00D+00 WtEn= 0.00D+00
 Coeff-Com:  0.184D-03-0.755D-03-0.392D-02-0.256D-02 0.770D-01 0.256D+00
 Coeff-Com:  0.674D+00
 Coeff:      0.184D-03-0.755D-03-0.392D-02-0.256D-02 0.770D-01 0.256D+00
 Coeff:      0.674D+00
 Gap=     0.272 Goal=   None    Shift=    0.000
 RMSDP=3.90D-06 MaxDP=1.23D-04 DE=-1.08D-06 OVMax= 1.48D-04

 Cycle   8  Pass 1  IDiag  1:
 E= -643.607379186641     Delta-E=       -0.000000092695 Rises=F Damp=F
 DIIS: error= 1.71D-05 at cycle   8 NSaved=   8.
 NSaved= 8 IEnMin= 8 EnMin= -643.607379186641     IErMin= 8 ErrMin= 1.71D-05
 ErrMax= 1.71D-05  0.00D+00 EMaxC= 1.00D-01 BMatC= 4.64D-08 BMatP= 1.42D-07
 IDIUse=1 WtCom= 1.00D+00 WtEn= 0.00D+00
 Coeff-Com:  0.599D-04-0.205D-04-0.282D-02-0.399D-02-0.269D-01-0.658D-02
 Coeff-Com:  0.383D+00 0.657D+00
 Coeff:      0.599D-04-0.205D-04-0.282D-02-0.399D-02-0.269D-01-0.658D-02
 Coeff:      0.383D+00 0.657D+00
 Gap=     0.272 Goal=   None    Shift=    0.000
 RMSDP=1.70D-06 MaxDP=5.58D-05 DE=-9.27D-08 OVMax= 5.21D-05

 Cycle   9  Pass 1  IDiag  1:
 E= -643.607379226361     Delta-E=       -0.000000039720 Rises=F Damp=F
 DIIS: error= 7.98D-07 at cycle   9 NSaved=   9.
 NSaved= 9 IEnMin= 9 EnMin= -643.607379226361     IErMin= 9 ErrMin= 7.98D-07
 ErrMax= 7.98D-07  0.00D+00 EMaxC= 1.00D-01 BMatC= 2.93D-10 BMatP= 4.64D-08
 IDIUse=1 WtCom= 1.00D+00 WtEn= 0.00D+00
 Coeff-Com: -0.151D-04 0.389D-04 0.934D-04 0.109D-03-0.367D-02-0.100D-01
 Coeff-Com: -0.211D-01 0.752D-02 0.103D+01
 Coeff:     -0.151D-04 0.389D-04 0.934D-04 0.109D-03-0.367D-02-0.100D-01
 Coeff:     -0.211D-01 0.752D-02 0.103D+01
 Gap=     0.272 Goal=   None    Shift=    0.000
 RMSDP=4.04D-07 MaxDP=1.70D-05 DE=-3.97D-08 OVMax= 1.04D-05

 Cycle  10  Pass 1  IDiag  1:
 E= -643.607379226939     Delta-E=       -0.000000000579 Rises=F Damp=F
 DIIS: error= 1.96D-07 at cycle  10 NSaved=  10.
 NSaved=10 IEnMin=10 EnMin= -643.607379226939     IErMin=10 ErrMin= 1.96D-07
 ErrMax= 1.96D-07  0.00D+00 EMaxC= 1.00D-01 BMatC= 1.64D-11 BMatP= 2.93D-10
 IDIUse=1 WtCom= 1.00D+00 WtEn= 0.00D+00
 Coeff-Com: -0.537D-05 0.723D-05 0.139D-03 0.191D-03 0.684D-03-0.578D-03
 Coeff-Com: -0.224D-01-0.339D-01 0.140D+00 0.916D+00
 Coeff:     -0.537D-05 0.723D-05 0.139D-03 0.191D-03 0.684D-03-0.578D-03
 Coeff:     -0.224D-01-0.339D-01 0.140D+00 0.916D+00
 Gap=     0.272 Goal=   None    Shift=    0.000
 RMSDP=7.92D-08 MaxDP=1.25D-06 DE=-5.79D-10 OVMax= 2.32D-06

 Cycle  11  Pass 1  IDiag  1:
 E= -643.607379226970     Delta-E=       -0.000000000030 Rises=F Damp=F
 DIIS: error= 5.70D-08 at cycle  11 NSaved=  11.
 NSaved=11 IEnMin=11 EnMin= -643.607379226970     IErMin=11 ErrMin= 5.70D-08
 ErrMax= 5.70D-08  0.00D+00 EMaxC= 1.00D-01 BMatC= 8.30D-13 BMatP= 1.64D-11
 IDIUse=1 WtCom= 1.00D+00 WtEn= 0.00D+00
 Coeff-Com:  0.112D-05-0.203D-05-0.491D-05-0.112D-04 0.183D-03 0.600D-03
 Coeff-Com:  0.128D-02-0.880D-03-0.589D-01 0.286D-01 0.103D+01
 Coeff:      0.112D-05-0.203D-05-0.491D-05-0.112D-04 0.183D-03 0.600D-03
 Coeff:      0.128D-02-0.880D-03-0.589D-01 0.286D-01 0.103D+01
 Gap=     0.272 Goal=   None    Shift=    0.000
 RMSDP=1.87D-08 MaxDP=4.13D-07 DE=-3.05D-11 OVMax= 6.09D-07

 Cycle  12  Pass 1  IDiag  1:
 E= -643.607379226972     Delta-E=       -0.000000000002 Rises=F Damp=F
 DIIS: error= 2.69D-08 at cycle  12 NSaved=  12.
 NSaved=12 IEnMin=12 EnMin= -643.607379226972     IErMin=12 ErrMin= 2.69D-08
 ErrMax= 2.69D-08  0.00D+00 EMaxC= 1.00D-01 BMatC= 1.50D-13 BMatP= 8.30D-13
 IDIUse=1 WtCom= 1.00D+00 WtEn= 0.00D+00
 Coeff-Com:  0.667D-06-0.113D-05-0.660D-05-0.109D-04 0.492D-04 0.249D-03
 Coeff-Com:  0.136D-02 0.102D-02-0.288D-01-0.215D-01 0.415D+00 0.633D+00
 Coeff:      0.667D-06-0.113D-05-0.660D-05-0.109D-04 0.492D-04 0.249D-03
 Coeff:      0.136D-02 0.102D-02-0.288D-01-0.215D-01 0.415D+00 0.633D+00
 Gap=     0.272 Goal=   None    Shift=    0.000
 RMSDP=3.46D-09 MaxDP=1.07D-07 DE=-2.27D-12 OVMax= 1.09D-07

 SCF Done:  E(RM062X) =  -643.607379227     A.U. after   12 cycles
            NFock= 12  Conv=0.35D-08     -V/T= 2.0042
 KE= 6.408975241340D+02 PE=-2.060827275723D+03 EE= 5.141088983294D+02
 Leave Link  502 at Mon Nov 30 17:35:40 2020, MaxMem= 21474836480 cpu:             245.4 elap:               8.4
 (Enter /apps/gaussian/g16c01/g16/l801.exe)
 DoSCS=F DFT=T ScalE2(SS,OS)=  1.000000  1.000000
 Range of M.O.s used for correlation:     1   146
 NBasis=   146 NAE=    25 NBE=    25 NFC=     0 NFV=     0
 NROrb=    146 NOA=    25 NOB=    25 NVA=   121 NVB=   121

 **** Warning!!: The largest alpha MO coefficient is  0.14616432D+02

 Leave Link  801 at Mon Nov 30 17:35:40 2020, MaxMem= 21474836480 cpu:               2.6 elap:               0.2
 (Enter /apps/gaussian/g16c01/g16/l1002.exe)
 Minotr:  Closed shell wavefunction.
          Direct CPHF calculation.
          Differentiating once with respect to electric field.
                with respect to dipole field.
          Electric field/nuclear overlap derivatives assumed to be zero.
          Requested convergence is 1.0D-08 RMS, and 1.0D-07 maximum.
          Secondary convergence is 1.0D-12 RMS, and 1.0D-12 maximum.
          NewPWx=F KeepS1=T KeepF1=T KeepIn=T MapXYZ=F SortEE=F KeepMc=T.
         2164 words used for storage of precomputed grid.
 Keep R1 ints in memory in canonical form, NReq=104735707.
 FoFCou: FMM=F IPFlag=           0 FMFlag=           0 FMFlg1=           0
         NFxFlg=           0 DoJE=F BraDBF=F KetDBF=F FulRan=T
         wScrn=  0.000000 ICntrl=       600 IOpCl=  0 I1Cent=           0 NGrid=           0
         NMat0=    1 NMatS0=  10731 NMatT0=    0 NMatD0=    1 NMtDS0=    0 NMtDT0=    0
 Symmetry not used in FoFCou.
 Two-electron integral symmetry not used.
          MDV=   21474836480 using IRadAn=       1.
          Solving linear equations simultaneously, MaxMat=       0.
          There are     3 degrees of freedom in the 1st order CPHF.  IDoFFX=0 NUNeed=     3.
      3 vectors produced by pass  0 Test12= 1.01D-13 3.33D-08 XBig12= 2.16D+01 1.21D+00.
 AX will form     3 AO Fock derivatives at one time.
      3 vectors produced by pass  1 Test12= 1.01D-13 3.33D-08 XBig12= 5.70D+00 5.98D-01.
      3 vectors produced by pass  2 Test12= 1.01D-13 3.33D-08 XBig12= 1.18D+00 1.76D-01.
      3 vectors produced by pass  3 Test12= 1.01D-13 3.33D-08 XBig12= 1.04D-01 5.45D-02.
      3 vectors produced by pass  4 Test12= 1.01D-13 3.33D-08 XBig12= 1.62D-02 2.25D-02.
      3 vectors produced by pass  5 Test12= 1.01D-13 3.33D-08 XBig12= 1.08D-03 9.16D-03.
      3 vectors produced by pass  6 Test12= 1.01D-13 3.33D-08 XBig12= 5.18D-05 1.84D-03.
      3 vectors produced by pass  7 Test12= 1.01D-13 3.33D-08 XBig12= 2.20D-06 3.33D-04.
      3 vectors produced by pass  8 Test12= 1.01D-13 3.33D-08 XBig12= 3.53D-08 3.62D-05.
      3 vectors produced by pass  9 Test12= 1.01D-13 3.33D-08 XBig12= 5.84D-10 4.55D-06.
      3 vectors produced by pass 10 Test12= 1.01D-13 3.33D-08 XBig12= 1.79D-11 7.13D-07.
      3 vectors produced by pass 11 Test12= 1.01D-13 3.33D-08 XBig12= 4.97D-13 1.10D-07.
 InvSVY:  IOpt=1 It=  1 EMax= 4.44D-15
 Solved reduced A of dimension    36 with     3 vectors.
 FullF1:  Do perturbations      1 to       3.
 SCF Polarizability for W=    0.000000:
                1             2             3 
      1  0.447402D+02
      2  0.128574D-01  0.474900D+02
      3 -0.927440D-03 -0.351902D+00  0.431540D+02
 Isotropic polarizability for W=    0.000000       45.13 Bohr**3.
 SCF Static Hyperpolarizability:
 K=  1 block:
                1 
      1 -0.923157D-01
 K=  2 block:
                1             2 
      1 -0.707711D+01
      2 -0.185358D+00 -0.571275D+02
 K=  3 block:
                1             2             3 
      1  0.142184D+01
      2 -0.624006D-01 -0.164758D+02
      3  0.248198D-01  0.488819D+01 -0.178222D+02
 End of Minotr F.D. properties file   721 does not exist.
 End of Minotr F.D. properties file   722 does not exist.
 End of Minotr F.D. properties file   788 does not exist.
 Leave Link 1002 at Mon Nov 30 17:35:46 2020, MaxMem= 21474836480 cpu:             230.0 elap:               5.5
 (Enter /apps/gaussian/g16c01/g16/l601.exe)
 Copying SCF densities to generalized density rwf, IOpCl= 0 IROHF=0.

 **********************************************************************

            Population analysis using the SCF Density.

 **********************************************************************

 Orbital symmetries:
       Occupied  (A) (A) (A) (A) (A) (A) (A) (A) (A) (A) (A) (A)
                 (A) (A) (A) (A) (A) (A) (A) (A) (A) (A) (A) (A)
                 (A)
       Virtual   (A) (A) (A) (A) (A) (A) (A) (A) (A) (A) (A) (A)
                 (A) (A) (A) (A) (A) (A) (A) (A) (A) (A) (A) (A)
                 (A) (A) (A) (A) (A) (A) (A) (A) (A) (A) (A) (A)
                 (A) (A) (A) (A) (A) (A) (A) (A) (A) (A) (A) (A)
                 (A) (A) (A) (A) (A) (A) (A) (A) (A) (A) (A) (A)
                 (A) (A) (A) (A) (A) (A) (A) (A) (A) (A) (A) (A)
                 (A) (A) (A) (A) (A) (A) (A) (A) (A) (A) (A) (A)
                 (A) (A) (A) (A) (A) (A) (A) (A) (A) (A) (A) (A)
                 (A) (A) (A) (A) (A) (A) (A) (A) (A) (A) (A) (A)
                 (A) (A) (A) (A) (A) (A) (A) (A) (A) (A) (A) (A)
                 (A)
 The electronic state is 1-A.
 Alpha  occ. eigenvalues --  -78.01197 -19.47400 -19.47399 -19.40704 -19.39842
 Alpha  occ. eigenvalues --   -6.78276  -4.90148  -4.90081  -4.89883  -0.99840
 Alpha  occ. eigenvalues --   -0.94774  -0.89220  -0.86656  -0.48117  -0.40390
 Alpha  occ. eigenvalues --   -0.37396  -0.33159  -0.32216  -0.26498  -0.25576
 Alpha  occ. eigenvalues --   -0.22808  -0.20077  -0.18008  -0.17341  -0.16248
 Alpha virt. eigenvalues --    0.10959   0.12781   0.15120   0.15742   0.16862
 Alpha virt. eigenvalues --    0.18273   0.19331   0.19901   0.22132   0.24868
 Alpha virt. eigenvalues --    0.27014   0.29896   0.31541   0.32008   0.32182
 Alpha virt. eigenvalues --    0.33093   0.33412   0.34318   0.34898   0.35538
 Alpha virt. eigenvalues --    0.36470   0.36726   0.38471   0.38515   0.39338
 Alpha virt. eigenvalues --    0.39584   0.40371   0.42838   0.43608   0.45508
 Alpha virt. eigenvalues --    0.46646   0.49657   0.51985   0.53030   0.55240
 Alpha virt. eigenvalues --    0.56227   0.56911   0.57218   0.60553   0.60677
 Alpha virt. eigenvalues --    0.63752   0.64874   0.71968   0.72587   0.76094
 Alpha virt. eigenvalues --    0.76985   0.77410   0.81620   0.82649   0.83389
 Alpha virt. eigenvalues --    0.84102   0.86697   0.88117   0.91014   0.91056
 Alpha virt. eigenvalues --    0.91543   0.94287   0.96973   0.98814   1.00476
 Alpha virt. eigenvalues --    1.02271   1.03492   1.03717   1.03998   1.10571
 Alpha virt. eigenvalues --    1.10783   1.15119   1.16610   1.20839   1.21270
 Alpha virt. eigenvalues --    1.26308   1.27968   1.30332   1.30398   1.34353
 Alpha virt. eigenvalues --    1.34909   1.37277   1.47076   1.53345   1.59561
 Alpha virt. eigenvalues --    1.61229   1.61615   1.63218   1.68734   1.73405
 Alpha virt. eigenvalues --    1.77775   1.81698   1.88331   1.92378   2.00053
 Alpha virt. eigenvalues --    2.01828   2.29693   2.30357   2.42726   2.48134
 Alpha virt. eigenvalues --    2.62245   2.62269   2.64284   2.69754   2.70024
 Alpha virt. eigenvalues --    2.73150   2.73695   2.74577   2.77541   2.78164
 Alpha virt. eigenvalues --    2.78771   2.88106   2.89724   2.92159   2.99704
 Alpha virt. eigenvalues --    3.15702   3.21434   3.33936   3.45181   3.47327
 Alpha virt. eigenvalues --    7.39540  42.91450  42.94728  43.13906  43.21012
 Alpha virt. eigenvalues --  164.48709
          Condensed to atoms (all electrons):
               1          2          3          4          5          6
     1  P   14.691869  -0.565935  -0.362575   0.077780  -0.074533   0.077696
     2  O   -0.565935   9.163626   0.086634  -0.033530   0.002573  -0.033389
     3  O   -0.362575   0.086634   8.915297   0.049495  -0.005928   0.049529
     4  O    0.077780  -0.033530   0.049495   7.943965   0.103391  -0.092640
     5  H   -0.074533   0.002573  -0.005928   0.103391   1.352147   0.007045
     6  O    0.077696  -0.033389   0.049529  -0.092640   0.007045   7.944193
     7  H   -0.074369   0.002570  -0.005971   0.007051   0.000293   0.103282
               7
     1  P   -0.074369
     2  O    0.002570
     3  O   -0.005971
     4  O    0.007051
     5  H    0.000293
     6  O    0.103282
     7  H    1.351959
 Mulliken charges:
               1
     1  P    1.230066
     2  O   -0.622550
     3  O   -0.726482
     4  O   -0.055512
     5  H   -0.384988
     6  O   -0.055718
     7  H   -0.384816
 Sum of Mulliken charges =  -1.00000
 Mulliken charges with hydrogens summed into heavy atoms:
               1
     1  P    1.230066
     2  O   -0.622550
     3  O   -0.726482
     4  O   -0.440501
     6  O   -0.440534
 Electronic spatial extent (au):  <R**2>=            419.5140
 Charge=             -1.0000 electrons
 Dipole moment (field-independent basis, Debye):
    X=             -0.0139    Y=             -3.3507    Z=             -1.2013  Tot=              3.5595
 Quadrupole moment (field-independent basis, Debye-Ang):
   XX=            -40.0482   YY=            -44.5529   ZZ=            -47.2685
   XY=             -0.0181   XZ=              0.0074   YZ=              2.4723
 Traceless Quadrupole moment (field-independent basis, Debye-Ang):
   XX=              3.9084   YY=             -0.5964   ZZ=             -3.3120
   XY=             -0.0181   XZ=              0.0074   YZ=              2.4723
 Octapole moment (field-independent basis, Debye-Ang**2):
  XXX=             -0.0907  YYY=            -19.2898  ZZZ=             -5.4113  XYY=             -0.0189
  XXY=             -7.5125  XXZ=              5.4123  XZZ=              0.0234  YZZ=              6.0195
  YYZ=             -8.6621  XYZ=             -0.0535
 Hexadecapole moment (field-independent basis, Debye-Ang**3):
 XXXX=           -186.9381 YYYY=           -209.0892 ZZZZ=           -181.9598 XXXY=              0.1410
 XXXZ=              0.0234 YYYX=             -0.2357 YYYZ=              4.1620 ZZZX=              0.0190
 ZZZY=              5.2466 XXYY=            -50.8880 XXZZ=            -65.8702 YYZZ=            -65.0508
 XXYZ=              2.5655 YYXZ=             -0.0098 ZZXY=             -0.0000
 N-N= 2.622134740329D+02 E-N=-2.060827276510D+03  KE= 6.408975241340D+02
  Exact polarizability:      44.740       0.013      47.490      -0.001      -0.352      43.154
 Approx polarizability:      47.920       0.030      55.014      -0.008      -2.034      48.320
 No NMR shielding tensors so no spin-rotation constants.
 Leave Link  601 at Mon Nov 30 17:35:48 2020, MaxMem= 21474836480 cpu:              41.4 elap:               1.8
 (Enter /apps/gaussian/g16c01/g16/l9999.exe)

 ----------------------------------------------------------------------

 Electric dipole moment (input orientation):
 (Debye = 10**-18 statcoulomb cm , SI units = C m)
                  (au)            (Debye)         (10**-30 SI)
   Tot        0.140043D+01      0.355953D+01      0.118733D+02
   x          0.134531D+01      0.341942D+01      0.114060D+02
   y          0.550770D-01      0.139992D+00      0.466962D+00
   z          0.385112D+00      0.978856D+00      0.326511D+01

 Dipole polarizability, Alpha (input orientation).
 (esu units = cm**3 , SI units = C**2 m**2 J**-1)
 Alpha(0;0):
               (au)            (10**-24 esu)      (10**-40 SI)
   iso        0.451281D+02      0.668729D+01      0.744061D+01
   aniso      0.384849D+01      0.570288D+00      0.634531D+00
   xx         0.474270D+02      0.702795D+01      0.781965D+01
   yx         0.964771D-02      0.142964D-02      0.159069D-02
   yy         0.447314D+02      0.662851D+01      0.737522D+01
   zx        -0.625682D+00     -0.927165D-01     -0.103161D+00
   zy        -0.122683D+00     -0.181798D-01     -0.202278D-01
   zz         0.432258D+02      0.640541D+01      0.712698D+01

 First dipole hyperpolarizability, Beta (input orientation).
 ||, _|_  parallel and perpendicular components, (z) with respect to z axis,
 vector components x,y,z.  Values do not include the 1/n! factor of 1/2.
 (esu units = statvolt**-1 cm**4 , SI units = C**3 m**3 J**-2)
 Beta(0;0,0):
               (au)            (10**-30 esu)      (10**-50 SI)
   || (z)     0.173294D+02      0.149713D+00      0.555644D-01
   _|_(z)     0.577647D+01      0.499042D-01      0.185215D-01
   x          0.183809D+03      0.158797D+01      0.589358D+00
   y          0.100319D+02      0.866675D-01      0.321658D-01
   z          0.866471D+02      0.748563D+00      0.277822D+00
   ||         0.406911D+02      0.351539D+00      0.130470D+00
   xxx        0.598237D+02      0.516830D+00      0.191816D+00
   xxy        0.180060D+01      0.155557D-01      0.577336D-02
   yxy        0.695868D+01      0.601176D-01      0.223120D-01
   yyy        0.198648D-01      0.171616D-03      0.636938D-04
   xxz        0.119880D+02      0.103567D+00      0.384380D-01
   yxz       -0.646257D+00     -0.558316D-02     -0.207213D-02
   yyz       -0.177573D+01     -0.153410D-01     -0.569364D-02
   zxz       -0.551270D+01     -0.476255D-01     -0.176757D-01
   zyz        0.152350D+01      0.131618D-01      0.488488D-02
   zzz        0.186701D+02      0.161295D+00      0.598630D-01

 ----------------------------------------------------------------------

 Dipole orientation:
    15          0.41973651          1.86425810          1.78338566
     8         -0.33248751          1.89058898         -0.94544628
     8          3.08219085          1.77084363          2.83911877
     8         -1.15892045         -0.55691071          3.20126350
     1          0.05857733         -1.04686275          4.49754443
     8         -0.98533543          4.39038180          3.20143037
     1          0.26404217          4.79437167          4.49723504

 Electric dipole moment (dipole orientation):
 (Debye = 10**-18 statcoulomb cm , SI units = C m)
                  (au)            (Debye)         (10**-30 SI)
   Tot        0.140043D+01      0.355953D+01      0.118733D+02
   x          0.000000D+00      0.000000D+00      0.000000D+00
   y          0.000000D+00      0.000000D+00      0.000000D+00
   z          0.140043D+01      0.355953D+01      0.118733D+02

 Dipole polarizability, Alpha (dipole orientation).
 (esu units = cm**3 , SI units = C**2 m**2 J**-1)
 Alpha(0;0):
               (au)            (10**-24 esu)      (10**-40 SI)
   iso        0.451281D+02      0.668729D+01      0.744061D+01
   aniso      0.384849D+01      0.570288D+00      0.634531D+00
   xx         0.438726D+02      0.650124D+01      0.723361D+01
   yx         0.302804D-01      0.448710D-02      0.499257D-02
   yy         0.447391D+02      0.662965D+01      0.737648D+01
   zx         0.164830D+01      0.244253D+00      0.271768D+00
   zy        -0.559710D-01     -0.829405D-02     -0.922837D-02
   zz         0.467726D+02      0.693098D+01      0.771176D+01

 First dipole hyperpolarizability, Beta (dipole orientation).
 ||, _|_  parallel and perpendicular components, (z) with respect to z axis,
 vector components x,y,z.  Values do not include the 1/n! factor of 1/2.
 (esu units = statvolt**-1 cm**4 , SI units = C**3 m**3 J**-2)
 Beta(0;0,0):
               (au)            (10**-30 esu)      (10**-50 SI)
   || (z)     0.401593D+02      0.346945D+00      0.128765D+00
   _|_(z)     0.133864D+02      0.115648D+00      0.429217D-01
   x         -0.327642D+02     -0.283057D+00     -0.105054D+00
   y          0.116533D+01      0.100676D-01      0.373648D-02
   z          0.200796D+03      0.173473D+01      0.643826D+00
   ||         0.406911D+02      0.351539D+00      0.130470D+00
   xxx       -0.222999D+02     -0.192654D+00     -0.715015D-01
   xxy        0.104264D+01      0.900759D-02      0.334308D-02
   yxy        0.368369D+01      0.318242D-01      0.118112D-01
   yyy       -0.384195D+00     -0.331915D-02     -0.123187D-02
   xxz       -0.785749D+00     -0.678826D-02     -0.251939D-02
   yxz        0.256042D+00      0.221201D-02      0.820964D-03
   yyz        0.617201D+01      0.533214D-01      0.197897D-01
   zxz        0.769481D+01      0.664771D-01      0.246723D-01
   zyz       -0.270000D+00     -0.233259D-02     -0.865717D-03
   zzz        0.615459D+02      0.531709D+00      0.197338D+00

 ----------------------------------------------------------------------
 Unable to Open any file for archive entry.
 1\1\GINC-GADI-CPU-CLX-1642\SP\RM062X\Gen\H2O4P1(1-)\TM3124\30-Nov-2020
 \0\\#P M062X/Gen field=Z-8 int=(grid=ultrafine) polar=Dipole\\dhp\\-1,
 1\P,0,0.9387,1.01586,0.00735\O,0,-0.55886,0.98478,-0.00791\O,0,1.866,0
 .94671,-1.19053\O,0,1.4667,-0.20955,1.06658\H,0,2.3113,-0.46062,0.6465
 \O,0,1.41458,2.40255,0.8754\H,0,2.24958,2.62345,0.42044\\Version=ES64L
 -G16RevC.01\State=1-A\HF=-643.6073792\RMSD=3.455e-09\Dipole=1.3453051,
 0.055077,0.3851116\Polar=47.4269572,0.0096477,44.7314287,-0.6256818,-0
 .1226834,43.2258366\HyperPolar=59.823665,1.8005962,6.9586776,0.0198648
 ,11.9880283,-0.6462574,-1.7757335,-5.5127038,1.5234952,18.6700695\Quad
 rupole=-0.2177174,2.8795412,-2.6618238,0.0614696,1.6953226,-0.3747662\
 PG=C01 [X(H2O4P1)]\\@
 The archive entry for this job was punched.


 CONFIDENCE: THAT QUIET ASSURED FEELING YOU HAVE
 JUST BEFORE YOU FALL FLAT ON YOUR FACE.
 Job cpu time:       0 days  0 hours 10 minutes 35.8 seconds.
 Elapsed time:       0 days  0 hours  0 minutes 21.4 seconds.
 File lengths (MBytes):  RWF=     15 Int=      0 D2E=      0 Chk=      3 Scr=      1
 Normal termination of Gaussian 16 at Mon Nov 30 17:35:48 2020.
