
    -----------------------------------------------------------------------
          Psi4: An Open-Source Ab Initio Electronic Structure Package
                               Psi4 1.1 release

                         Git: Rev {HEAD} add49b9 


    R. M. Parrish, L. A. Burns, D. G. A. Smith, A. C. Simmonett,
    A. E. DePrince III, E. G. Hohenstein, U. Bozkaya, A. Yu. Sokolov,
    R. Di Remigio, R. M. Richard, J. F. Gonthier, A. M. James,
    H. R. McAlexander, A. Kumar, M. Saitow, X. Wang, B. P. Pritchard,
    P. Verma, H. F. Schaefer III, K. Patkowski, R. A. King, E. F. Valeev,
    F. A. Evangelista, J. M. Turney, T. D. Crawford, and C. D. Sherrill,
    J. Chem. Theory Comput. in press (2017).
    (doi: 10.1021/acs.jctc.7b00174)

    -----------------------------------------------------------------------


    Psi4 started on: Thursday, 03 June 2021 09:52AM

    Process ID:  12078
    PSIDATADIR: /usr/local/anaconda/5.0.1-Python3.5-gcc5/envs/p4env/share/psi4
    Memory:     500.0 MiB
    Threads:    1
    
  ==> Input File <==

--------------------------------------------------------------------------
# PSI4 Calc: name

memory 48gb

molecule complex {
0 1
O         -2.59997        1.43514       -0.00941
C         -1.49529        0.91037       -0.00522
C         -1.36911       -0.56490       -0.00166
C         -0.14295       -1.08333        0.00136
C          0.23495       -2.48778        0.00659
C          1.58150       -2.49414        0.00632
N          2.08446       -1.21170        0.00136
H          3.07051       -0.99110        0.00138
C          1.07818       -0.28165        0.00136
C          1.08688        1.04876        0.00275
C         -0.20917        1.75331       -0.00185
O         -0.24946        2.97593       -0.00160
H         -2.28005       -1.14708       -0.00290
H         -0.42827       -3.33619        0.01102
H          2.24720       -3.34637        0.01047
H          1.98644        1.64666        0.00817
--
-1 1
H          6.91856        0.34190        1.08330
O          4.80867       -1.76396        0.09917
C          6.71256       -0.27224        0.18229
C          5.20071       -0.56454        0.09495
H          7.29629       -1.21141        0.22972
O          4.44999        0.49380        0.01890
H          7.02931        0.32435       -0.69830
units angstrom
no_reorient
symmetry c1
}

set sapt {
    print 1
}

set globals {
    scf_type df
    basis aug-cc-pVDZ # same level of theory that Katya G uses
    guess sad
}
energy('sapt2+')
--------------------------------------------------------------------------

  Memory set to  44.703 GiB by Python driver.

  //>>>>>>>>>>>>>>>>>>>>>>>>>>>>>>>>>>>//
  //              Dimer HF             //
  //<<<<<<<<<<<<<<<<<<<<<<<<<<<<<<<<<<<//


*** tstart() called on gp08
*** at Thu Jun  3 09:52:54 2021

   => Loading Basis Set <=

    Name: AUG-CC-PVDZ
    Role: ORBITAL
    Keyword: BASIS
    atoms 1, 12, 18, 22    entry O          line   243 file /usr/local/anaconda/5.0.1-Python3.5-gcc5/envs/p4env/share/psi4/basis/aug-cc-pvdz.gbs 
    atoms 2-6, 9-11, 19-20 entry C          line   171 file /usr/local/anaconda/5.0.1-Python3.5-gcc5/envs/p4env/share/psi4/basis/aug-cc-pvdz.gbs 
    atoms 7                entry N          line   207 file /usr/local/anaconda/5.0.1-Python3.5-gcc5/envs/p4env/share/psi4/basis/aug-cc-pvdz.gbs 
    atoms 8, 13-17, 21, 23 entry H          line    35 file /usr/local/anaconda/5.0.1-Python3.5-gcc5/envs/p4env/share/psi4/basis/aug-cc-pvdz.gbs 


         ---------------------------------------------------------
                                   SCF
            by Justin Turney, Rob Parrish, and Andy Simmonett
                              RHF Reference
                        1 Threads,  45776 MiB Core
         ---------------------------------------------------------

  ==> Geometry <==

    Molecular point group: c1
    Full point group: C1

    Geometry (in Angstrom), charge = -1, multiplicity = 1:

       Center              X                  Y                   Z               Mass       
    ------------   -----------------  -----------------  -----------------  -----------------
           O         -4.103936330600     1.546485695092    -0.037666064151    15.994914619560
           C         -2.999256330600     1.021715695092    -0.033476064151    12.000000000000
           C         -2.873076330600    -0.453554304908    -0.029916064151    12.000000000000
           C         -1.646916330600    -0.971984304908    -0.026896064151    12.000000000000
           C         -1.269016330600    -2.376434304908    -0.021666064151    12.000000000000
           C          0.077533669400    -2.382794304908    -0.021936064151    12.000000000000
           N          0.580493669400    -1.100354304908    -0.026896064151    14.003074004780
           H          1.566543669400    -0.879754304908    -0.026876064151     1.007825032070
           C         -0.425786330600    -0.170304304908    -0.026896064151    12.000000000000
           C         -0.417086330600     1.160105695092    -0.025506064151    12.000000000000
           C         -1.713136330600     1.864655695092    -0.030106064151    12.000000000000
           O         -1.753426330600     3.087275695092    -0.029856064151    15.994914619560
           H         -3.784016330600    -1.035734304908    -0.031156064151     1.007825032070
           H         -1.932236330600    -3.224844304908    -0.017236064151     1.007825032070
           H          0.743233669400    -3.235024304908    -0.017786064151     1.007825032070
           H          0.482473669400     1.758005695092    -0.020086064151     1.007825032070
           H          5.414593669400     0.453245695092     1.055043935849     1.007825032070
           O          3.304703669400    -1.652614304908     0.070913935849    15.994914619560
           C          5.208593669400    -0.160894304908     0.154033935849    12.000000000000
           C          3.696743669400    -0.453194304908     0.066693935849    12.000000000000
           H          5.792323669400    -1.100064304908     0.201463935849     1.007825032070
           O          2.946023669400     0.605145695092    -0.009356064151    15.994914619560
           H          5.525343669400     0.435695695092    -0.726556064151     1.007825032070

  Running in c1 symmetry.

  Rotational constants: A =      0.03891  B =      0.01041  C =      0.00823 [cm^-1]
  Rotational constants: A =   1166.52863  B =    312.11581  C =    246.66591 [MHz]
  Nuclear repulsion =  903.354251822408855

  Charge       = -1
  Multiplicity = 1
  Electrons    = 108
  Nalpha       = 54
  Nbeta        = 54

  ==> Algorithm <==

  SCF Algorithm Type is DF.
  DIIS enabled.
  MOM disabled.
  Fractional occupation disabled.
  Guess Type is SAD.
  Energy threshold   = 1.00e-08
  Density threshold  = 1.00e-08
  Integral threshold = 0.00e+00

  ==> Primary Basis <==

  Basis Set: AUG-CC-PVDZ
    Blend: AUG-CC-PVDZ
    Number of shells: 175
    Number of basis function: 417
    Number of Cartesian functions: 447
    Spherical Harmonics?: true
    Max angular momentum: 2

   => Loading Basis Set <=

    Name: (AUG-CC-PVDZ AUX)
    Role: JKFIT
    Keyword: DF_BASIS_SCF
    atoms 1, 12, 18, 22    entry O          line   269 file /usr/local/anaconda/5.0.1-Python3.5-gcc5/envs/p4env/share/psi4/basis/aug-cc-pvdz-jkfit.gbs 
    atoms 2-6, 9-11, 19-20 entry C          line   153 file /usr/local/anaconda/5.0.1-Python3.5-gcc5/envs/p4env/share/psi4/basis/aug-cc-pvdz-jkfit.gbs 
    atoms 7                entry N          line   211 file /usr/local/anaconda/5.0.1-Python3.5-gcc5/envs/p4env/share/psi4/basis/aug-cc-pvdz-jkfit.gbs 
    atoms 8, 13-17, 21, 23 entry H          line    69 file /usr/local/anaconda/5.0.1-Python3.5-gcc5/envs/p4env/share/psi4/basis/aug-cc-pvdz-jkfit.gbs 

  ==> Pre-Iterations <==

   -------------------------------------------------------
    Irrep   Nso     Nmo     Nalpha   Nbeta   Ndocc  Nsocc
   -------------------------------------------------------
     A        417     417       0       0       0       0
   -------------------------------------------------------
    Total     417     417      54      54      54       0
   -------------------------------------------------------

  ==> Integral Setup <==

  ==> DFJK: Density-Fitted J/K Matrices <==

    J tasked:                  Yes
    K tasked:                  Yes
    wK tasked:                  No
    OpenMP threads:              1
    Integrals threads:           1
    Memory (MB):             34332
    Algorithm:                Core
    Integral Cache:           SAVE
    Schwarz Cutoff:          1E-12
    Fitting Condition:       1E-12

   => Auxiliary Basis Set <=

  Basis Set: (AUG-CC-PVDZ AUX)
    Blend: AUG-CC-PVDZ-JKFIT
    Number of shells: 516
    Number of basis function: 1546
    Number of Cartesian functions: 1795
    Spherical Harmonics?: true
    Max angular momentum: 3

  Minimum eigenvalue in the overlap matrix is 1.9566212550E-06.
  Using Symmetric Orthogonalization.

  SCF Guess: Superposition of Atomic Densities via on-the-fly atomic UHF.

  ==> Iterations <==

                           Total Energy        Delta E     RMS |[F,P]|

   @DF-RHF iter   0:  -747.38133250245664   -7.47381e+02   1.72009e-02 
   @DF-RHF iter   1:  -736.88133521607642    1.05000e+01   2.02299e-03 
   @DF-RHF iter   2:  -737.23490666217435   -3.53571e-01   1.17939e-03 DIIS
   @DF-RHF iter   3:  -737.34282227104939   -1.07916e-01   4.39222e-04 DIIS
   @DF-RHF iter   4:  -737.36167523769416   -1.88530e-02   1.20501e-04 DIIS
   @DF-RHF iter   5:  -737.36374565165602   -2.07041e-03   4.80944e-05 DIIS
   @DF-RHF iter   6:  -737.36415330920113   -4.07658e-04   2.02232e-05 DIIS
   @DF-RHF iter   7:  -737.36427785375531   -1.24545e-04   9.08433e-06 DIIS
   @DF-RHF iter   8:  -737.36431345103074   -3.55973e-05   4.23063e-06 DIIS
   @DF-RHF iter   9:  -737.36432323221857   -9.78119e-06   2.50543e-06 DIIS
   @DF-RHF iter  10:  -737.36432719335210   -3.96113e-06   1.21550e-06 DIIS
   @DF-RHF iter  11:  -737.36432816767183   -9.74320e-07   5.47016e-07 DIIS
   @DF-RHF iter  12:  -737.36432831812579   -1.50454e-07   2.10070e-07 DIIS
   @DF-RHF iter  13:  -737.36432833650724   -1.83815e-08   8.45111e-08 DIIS
   @DF-RHF iter  14:  -737.36432833872482   -2.21758e-09   3.80037e-08 DIIS
   @DF-RHF iter  15:  -737.36432833911158   -3.86763e-10   1.44781e-08 DIIS
   @DF-RHF iter  16:  -737.36432833917570   -6.41194e-11   6.98163e-09 DIIS

  ==> Post-Iterations <==

    Orbital Energies (a.u.)
    -----------------------

    Doubly Occupied:                                                      

       1A    -20.464936     2A    -20.455203     3A    -20.367392  
       4A    -20.352523     5A    -15.476363     6A    -11.242738  
       7A    -11.237267     8A    -11.205856     9A    -11.201122  
      10A    -11.198700    11A    -11.174969    12A    -11.139568  
      13A    -11.126352    14A    -11.120994    15A    -11.103694  
      16A     -1.300430    17A     -1.269578    18A     -1.223164  
      19A     -1.198530    20A     -1.114277    21A     -1.025715  
      22A     -0.971443    23A     -0.890173    24A     -0.848641  
      25A     -0.838419    26A     -0.747557    27A     -0.696199  
      28A     -0.685620    29A     -0.640807    30A     -0.576702  
      31A     -0.567302    32A     -0.562460    33A     -0.541631  
      34A     -0.519355    35A     -0.504243    36A     -0.494044  
      37A     -0.489507    38A     -0.469449    39A     -0.467879  
      40A     -0.464116    41A     -0.455087    42A     -0.451609  
      43A     -0.421906    44A     -0.403942    45A     -0.403383  
      46A     -0.367364    47A     -0.367061    48A     -0.313463  
      49A     -0.296391    50A     -0.284329    51A     -0.267304  
      52A     -0.254463    53A     -0.247991    54A     -0.174162  

    Virtual:                                                              

      55A      0.105162    56A      0.116800    57A      0.118733  
      58A      0.124979    59A      0.136398    60A      0.142830  
      61A      0.147707    62A      0.154122    63A      0.164624  
      64A      0.179357    65A      0.181865    66A      0.194108  
      67A      0.202733    68A      0.206045    69A      0.210900  
      70A      0.218954    71A      0.223849    72A      0.225232  
      73A      0.234984    74A      0.236901    75A      0.239549  
      76A      0.241324    77A      0.252205    78A      0.253522  
      79A      0.257666    80A      0.260279    81A      0.261488  
      82A      0.265702    83A      0.274340    84A      0.275764  
      85A      0.277113    86A      0.286781    87A      0.290963  
      88A      0.291328    89A      0.297124    90A      0.306469  
      91A      0.313533    92A      0.317692    93A      0.318706  
      94A      0.334282    95A      0.338223    96A      0.339422  
      97A      0.349046    98A      0.349513    99A      0.351102  
     100A      0.360055   101A      0.376158   102A      0.385866  
     103A      0.391195   104A      0.393686   105A      0.399817  
     106A      0.401228   107A      0.408354   108A      0.417823  
     109A      0.419766   110A      0.422528   111A      0.429917  
     112A      0.432990   113A      0.433612   114A      0.439787  
     115A      0.445244   116A      0.454158   117A      0.455459  
     118A      0.459175   119A      0.469952   120A      0.472477  
     121A      0.481401   122A      0.482801   123A      0.486029  
     124A      0.487647   125A      0.499716   126A      0.505355  
     127A      0.515766   128A      0.516850   129A      0.524147  
     130A      0.526009   131A      0.533064   132A      0.539871  
     133A      0.543428   134A      0.545238   135A      0.554541  
     136A      0.561483   137A      0.564821   138A      0.568714  
     139A      0.573609   140A      0.581380   141A      0.588367  
     142A      0.598451   143A      0.604242   144A      0.613503  
     145A      0.617002   146A      0.621278   147A      0.631700  
     148A      0.637016   149A      0.639923   150A      0.648416  
     151A      0.655883   152A      0.661377   153A      0.664082  
     154A      0.674872   155A      0.675265   156A      0.684912  
     157A      0.694063   158A      0.696208   159A      0.711922  
     160A      0.718592   161A      0.725224   162A      0.727697  
     163A      0.731833   164A      0.733639   165A      0.745476  
     166A      0.754878   167A      0.757881   168A      0.761393  
     169A      0.764684   170A      0.770481   171A      0.783854  
     172A      0.786561   173A      0.789305   174A      0.796126  
     175A      0.797934   176A      0.805749   177A      0.815285  
     178A      0.818183   179A      0.823327   180A      0.824186  
     181A      0.831676   182A      0.844115   183A      0.848929  
     184A      0.851723   185A      0.863470   186A      0.869143  
     187A      0.874227   188A      0.890042   189A      0.896375  
     190A      0.910817   191A      0.913154   192A      0.918016  
     193A      0.923868   194A      0.932116   195A      0.937453  
     196A      0.946181   197A      0.956084   198A      0.965255  
     199A      0.970316   200A      0.971431   201A      0.978372  
     202A      0.993976   203A      1.011180   204A      1.019549  
     205A      1.023210   206A      1.027994   207A      1.028710  
     208A      1.042918   209A      1.054998   210A      1.058317  
     211A      1.061879   212A      1.077402   213A      1.079469  
     214A      1.085164   215A      1.086068   216A      1.100337  
     217A      1.102679   218A      1.118933   219A      1.124117  
     220A      1.127004   221A      1.140536   222A      1.158644  
     223A      1.167936   224A      1.176291   225A      1.183729  
     226A      1.200018   227A      1.207830   228A      1.218588  
     229A      1.221522   230A      1.228673   231A      1.235082  
     232A      1.239007   233A      1.241933   234A      1.251317  
     235A      1.259542   236A      1.285437   237A      1.303942  
     238A      1.318236   239A      1.332830   240A      1.337107  
     241A      1.359071   242A      1.364710   243A      1.371879  
     244A      1.379568   245A      1.388659   246A      1.393217  
     247A      1.403579   248A      1.417001   249A      1.432059  
     250A      1.435849   251A      1.450225   252A      1.481290  
     253A      1.485601   254A      1.494546   255A      1.501015  
     256A      1.510526   257A      1.518468   258A      1.529507  
     259A      1.539772   260A      1.547658   261A      1.578691  
     262A      1.584618   263A      1.591170   264A      1.594085  
     265A      1.604513   266A      1.623123   267A      1.626666  
     268A      1.653049   269A      1.659863   270A      1.673063  
     271A      1.684347   272A      1.696022   273A      1.699301  
     274A      1.712753   275A      1.722633   276A      1.730842  
     277A      1.743769   278A      1.744608   279A      1.776470  
     280A      1.783266   281A      1.791811   282A      1.803837  
     283A      1.814973   284A      1.818729   285A      1.838758  
     286A      1.844029   287A      1.849626   288A      1.857984  
     289A      1.865213   290A      1.876053   291A      1.883101  
     292A      1.894288   293A      1.897678   294A      1.918996  
     295A      1.932163   296A      1.945479   297A      1.951442  
     298A      1.959334   299A      1.968726   300A      1.982901  
     301A      1.987468   302A      1.988610   303A      1.996575  
     304A      2.014115   305A      2.015382   306A      2.022308  
     307A      2.043217   308A      2.051258   309A      2.068165  
     310A      2.079632   311A      2.090814   312A      2.091775  
     313A      2.119229   314A      2.123541   315A      2.148375  
     316A      2.158463   317A      2.163317   318A      2.182484  
     319A      2.198416   320A      2.210863   321A      2.214768  
     322A      2.223914   323A      2.231936   324A      2.239842  
     325A      2.251340   326A      2.256140   327A      2.286174  
     328A      2.286544   329A      2.295757   330A      2.301968  
     331A      2.324137   332A      2.336987   333A      2.343811  
     334A      2.358689   335A      2.363306   336A      2.379333  
     337A      2.400393   338A      2.405480   339A      2.419476  
     340A      2.429531   341A      2.438896   342A      2.463145  
     343A      2.472198   344A      2.490938   345A      2.504095  
     346A      2.509051   347A      2.511580   348A      2.522366  
     349A      2.571261   350A      2.592396   351A      2.593621  
     352A      2.616562   353A      2.631384   354A      2.635454  
     355A      2.670473   356A      2.696943   357A      2.711893  
     358A      2.744603   359A      2.755144   360A      2.756667  
     361A      2.785171   362A      2.794586   363A      2.842395  
     364A      2.863255   365A      2.885822   366A      2.905544  
     367A      2.923970   368A      2.939151   369A      2.981188  
     370A      3.013074   371A      3.030938   372A      3.039659  
     373A      3.050883   374A      3.067930   375A      3.079576  
     376A      3.112052   377A      3.138726   378A      3.147466  
     379A      3.157620   380A      3.187990   381A      3.281851  
     382A      3.302900   383A      3.334004   384A      3.353652  
     385A      3.362741   386A      3.405140   387A      3.464902  
     388A      3.515663   389A      3.571869   390A      3.577609  
     391A      3.634886   392A      3.689604   393A      3.840528  
     394A      3.850599   395A      3.859533   396A      3.877772  
     397A      3.895546   398A      3.910359   399A      3.924288  
     400A      3.928527   401A      3.958731   402A      3.982442  
     403A      4.016985   404A      4.052502   405A      4.056446  
     406A      4.087030   407A      4.090065   408A      4.157388  
     409A      4.194629   410A      4.212148   411A      4.245466  
     412A      4.293103   413A      4.316561   414A      4.363123  
     415A      4.380914   416A      4.437484   417A      4.638111  

    Final Occupation by Irrep:
              A 
    DOCC [    54 ]

  Energy converged.

  @DF-RHF Final Energy:  -737.36432833917570

   => Energetics <=

    Nuclear Repulsion Energy =            903.3542518224088553
    One-Electron Energy =               -2816.0704192061484719
    Two-Electron Energy =                1175.3518390445638033
    DFT Exchange-Correlation Energy =       0.0000000000000000
    Empirical Dispersion Energy =           0.0000000000000000
    PCM Polarization Energy =               0.0000000000000000
    EFP Energy =                            0.0000000000000000
    Total Energy =                       -737.3643283391756995



Properties will be evaluated at   0.000000,   0.000000,   0.000000 Bohr

Properties computed using the SCF density matrix

  Nuclear Dipole Moment: (a.u.)
     X:    12.9450      Y:    -6.3811      Z:     0.3908

  Electronic Dipole Moment: (a.u.)
     X:   -14.1275      Y:     4.3967      Z:    -0.3886

  Dipole Moment: (a.u.)
     X:    -1.1825      Y:    -1.9844      Z:     0.0022     Total:     2.3100

  Dipole Moment: (Debye)
     X:    -3.0057      Y:    -5.0437      Z:     0.0056     Total:     5.8714


*** tstop() called on gp08 at Thu Jun  3 09:54:36 2021
Module time:
	user time   =      98.77 seconds =       1.65 minutes
	system time =       3.02 seconds =       0.05 minutes
	total time  =        102 seconds =       1.70 minutes
Total time:
	user time   =      98.77 seconds =       1.65 minutes
	system time =       3.02 seconds =       0.05 minutes
	total time  =        102 seconds =       1.70 minutes

  //>>>>>>>>>>>>>>>>>>>>>>>>>>>>>>>>>>>//
  //            Monomer A HF           //
  //<<<<<<<<<<<<<<<<<<<<<<<<<<<<<<<<<<<//


*** tstart() called on gp08
*** at Thu Jun  3 09:54:36 2021

   => Loading Basis Set <=

    Name: AUG-CC-PVDZ
    Role: ORBITAL
    Keyword: BASIS
    atoms 1, 12, 18, 22    entry O          line   243 file /usr/local/anaconda/5.0.1-Python3.5-gcc5/envs/p4env/share/psi4/basis/aug-cc-pvdz.gbs 
    atoms 2-6, 9-11, 19-20 entry C          line   171 file /usr/local/anaconda/5.0.1-Python3.5-gcc5/envs/p4env/share/psi4/basis/aug-cc-pvdz.gbs 
    atoms 7                entry N          line   207 file /usr/local/anaconda/5.0.1-Python3.5-gcc5/envs/p4env/share/psi4/basis/aug-cc-pvdz.gbs 
    atoms 8, 13-17, 21, 23 entry H          line    35 file /usr/local/anaconda/5.0.1-Python3.5-gcc5/envs/p4env/share/psi4/basis/aug-cc-pvdz.gbs 


         ---------------------------------------------------------
                                   SCF
            by Justin Turney, Rob Parrish, and Andy Simmonett
                              RHF Reference
                        1 Threads,  45776 MiB Core
         ---------------------------------------------------------

  ==> Geometry <==

    Molecular point group: c1
    Full point group: C1

    Geometry (in Angstrom), charge = 0, multiplicity = 1:

       Center              X                  Y                   Z               Mass       
    ------------   -----------------  -----------------  -----------------  -----------------
           O         -4.103936330600     1.546485695092    -0.037666064151    15.994914619560
           C         -2.999256330600     1.021715695092    -0.033476064151    12.000000000000
           C         -2.873076330600    -0.453554304908    -0.029916064151    12.000000000000
           C         -1.646916330600    -0.971984304908    -0.026896064151    12.000000000000
           C         -1.269016330600    -2.376434304908    -0.021666064151    12.000000000000
           C          0.077533669400    -2.382794304908    -0.021936064151    12.000000000000
           N          0.580493669400    -1.100354304908    -0.026896064151    14.003074004780
           H          1.566543669400    -0.879754304908    -0.026876064151     1.007825032070
           C         -0.425786330600    -0.170304304908    -0.026896064151    12.000000000000
           C         -0.417086330600     1.160105695092    -0.025506064151    12.000000000000
           C         -1.713136330600     1.864655695092    -0.030106064151    12.000000000000
           O         -1.753426330600     3.087275695092    -0.029856064151    15.994914619560
           H         -3.784016330600    -1.035734304908    -0.031156064151     1.007825032070
           H         -1.932236330600    -3.224844304908    -0.017236064151     1.007825032070
           H          0.743233669400    -3.235024304908    -0.017786064151     1.007825032070
           H          0.482473669400     1.758005695092    -0.020086064151     1.007825032070
           H(Gh)      5.414593669400     0.453245695092     1.055043935849     1.007825032070
           O(Gh)      3.304703669400    -1.652614304908     0.070913935849    15.994914619560
           C(Gh)      5.208593669400    -0.160894304908     0.154033935849    12.000000000000
           C(Gh)      3.696743669400    -0.453194304908     0.066693935849    12.000000000000
           H(Gh)      5.792323669400    -1.100064304908     0.201463935849     1.007825032070
           O(Gh)      2.946023669400     0.605145695092    -0.009356064151    15.994914619560
           H(Gh)      5.525343669400     0.435695695092    -0.726556064151     1.007825032070

  Running in c1 symmetry.

  Rotational constants: A =      0.03891  B =      0.01041  C =      0.00823 [cm^-1]
  Rotational constants: A =   1166.52863  B =    312.11581  C =    246.66591 [MHz]
  Nuclear repulsion =  552.050775980034018

  Charge       = 0
  Multiplicity = 1
  Electrons    = 76
  Nalpha       = 38
  Nbeta        = 38

  ==> Algorithm <==

  SCF Algorithm Type is DF.
  DIIS enabled.
  MOM disabled.
  Fractional occupation disabled.
  Guess Type is SAD.
  Energy threshold   = 1.00e-08
  Density threshold  = 1.00e-08
  Integral threshold = 0.00e+00

  ==> Primary Basis <==

  Basis Set: AUG-CC-PVDZ
    Blend: AUG-CC-PVDZ
    Number of shells: 175
    Number of basis function: 417
    Number of Cartesian functions: 447
    Spherical Harmonics?: true
    Max angular momentum: 2

   => Loading Basis Set <=

    Name: (AUG-CC-PVDZ AUX)
    Role: JKFIT
    Keyword: DF_BASIS_SCF
    atoms 1, 12, 18, 22    entry O          line   269 file /usr/local/anaconda/5.0.1-Python3.5-gcc5/envs/p4env/share/psi4/basis/aug-cc-pvdz-jkfit.gbs 
    atoms 2-6, 9-11, 19-20 entry C          line   153 file /usr/local/anaconda/5.0.1-Python3.5-gcc5/envs/p4env/share/psi4/basis/aug-cc-pvdz-jkfit.gbs 
    atoms 7                entry N          line   211 file /usr/local/anaconda/5.0.1-Python3.5-gcc5/envs/p4env/share/psi4/basis/aug-cc-pvdz-jkfit.gbs 
    atoms 8, 13-17, 21, 23 entry H          line    69 file /usr/local/anaconda/5.0.1-Python3.5-gcc5/envs/p4env/share/psi4/basis/aug-cc-pvdz-jkfit.gbs 

  ==> Pre-Iterations <==

   -------------------------------------------------------
    Irrep   Nso     Nmo     Nalpha   Nbeta   Ndocc  Nsocc
   -------------------------------------------------------
     A        417     417       0       0       0       0
   -------------------------------------------------------
    Total     417     417      38      38      38       0
   -------------------------------------------------------

  ==> Integral Setup <==

  ==> DFJK: Density-Fitted J/K Matrices <==

    J tasked:                  Yes
    K tasked:                  Yes
    wK tasked:                  No
    OpenMP threads:              1
    Integrals threads:           1
    Memory (MB):             34332
    Algorithm:                Core
    Integral Cache:           LOAD
    Schwarz Cutoff:          1E-12
    Fitting Condition:       1E-12

   => Auxiliary Basis Set <=

  Basis Set: (AUG-CC-PVDZ AUX)
    Blend: AUG-CC-PVDZ-JKFIT
    Number of shells: 516
    Number of basis function: 1546
    Number of Cartesian functions: 1795
    Spherical Harmonics?: true
    Max angular momentum: 3

  Minimum eigenvalue in the overlap matrix is 1.9566212550E-06.
  Using Symmetric Orthogonalization.

  SCF Guess: Superposition of Atomic Densities via on-the-fly atomic UHF.

  ==> Iterations <==

                           Total Energy        Delta E     RMS |[F,P]|

   @DF-RHF iter   0:  -514.61512221232908   -5.14615e+02   1.51137e-02 
   @DF-RHF iter   1:  -509.73738529911992    4.87774e+00   1.57702e-03 
   @DF-RHF iter   2:  -509.96457904980838   -2.27194e-01   9.29006e-04 DIIS
   @DF-RHF iter   3:  -510.02916865962845   -6.45896e-02   3.75307e-04 DIIS
   @DF-RHF iter   4:  -510.04299917288756   -1.38305e-02   7.18626e-05 DIIS
   @DF-RHF iter   5:  -510.04394889232094   -9.49719e-04   4.02736e-05 DIIS
   @DF-RHF iter   6:  -510.04422677400692   -2.77882e-04   1.44931e-05 DIIS
   @DF-RHF iter   7:  -510.04432536035648   -9.85863e-05   8.13724e-06 DIIS
   @DF-RHF iter   8:  -510.04435303529579   -2.76749e-05   4.13215e-06 DIIS
   @DF-RHF iter   9:  -510.04436475788498   -1.17226e-05   2.20286e-06 DIIS
   @DF-RHF iter  10:  -510.04436783088681   -3.07300e-06   1.03944e-06 DIIS
   @DF-RHF iter  11:  -510.04436852508900   -6.94202e-07   3.65997e-07 DIIS
   @DF-RHF iter  12:  -510.04436859091572   -6.58267e-08   1.67536e-07 DIIS
   @DF-RHF iter  13:  -510.04436859908566   -8.16993e-09   7.00319e-08 DIIS
   @DF-RHF iter  14:  -510.04436860155408   -2.46843e-09   3.72110e-08 DIIS
   @DF-RHF iter  15:  -510.04436860214207   -5.87988e-10   1.86624e-08 DIIS
   @DF-RHF iter  16:  -510.04436860230624   -1.64164e-10   9.12038e-09 DIIS

  ==> Post-Iterations <==

    Orbital Energies (a.u.)
    -----------------------

    Doubly Occupied:                                                      

       1A    -20.575121     2A    -20.568944     3A    -15.639013  
       4A    -11.351788     5A    -11.350991     6A    -11.332678  
       7A    -11.328307     8A    -11.291179     9A    -11.261154  
      10A    -11.256664    11A    -11.253321    12A     -1.409110  
      13A     -1.379260    14A     -1.345313    15A     -1.152330  
      16A     -1.102722    17A     -1.018127    18A     -0.973732  
      19A     -0.871650    20A     -0.831464    21A     -0.811166  
      22A     -0.769404    23A     -0.696056    24A     -0.684751  
      25A     -0.658445    26A     -0.644949    27A     -0.632553  
      28A     -0.628301    29A     -0.610205    30A     -0.590459  
      31A     -0.570883    32A     -0.548290    33A     -0.510912  
      34A     -0.478481    35A     -0.440942    36A     -0.413732  
      37A     -0.408820    38A     -0.302450  

    Virtual:                                                              

      39A      0.001452    40A      0.008773    41A      0.025683  
      42A      0.035272    43A      0.042998    44A      0.044755  
      45A      0.050007    46A      0.062575    47A      0.067892  
      48A      0.074737    49A      0.077384    50A      0.096164  
      51A      0.097654    52A      0.100891    53A      0.109607  
      54A      0.114019    55A      0.119876    56A      0.123080  
      57A      0.123334    58A      0.123667    59A      0.126131  
      60A      0.135734    61A      0.138083    62A      0.141364  
      63A      0.144831    64A      0.148353    65A      0.156290  
      66A      0.158404    67A      0.160161    68A      0.167211  
      69A      0.174772    70A      0.175891    71A      0.183825  
      72A      0.185699    73A      0.189625    74A      0.192541  
      75A      0.198656    76A      0.204770    77A      0.207468  
      78A      0.219151    79A      0.222349    80A      0.225848  
      81A      0.227464    82A      0.231499    83A      0.238251  
      84A      0.239143    85A      0.240632    86A      0.253920  
      87A      0.258616    88A      0.265465    89A      0.266868  
      90A      0.283425    91A      0.289272    92A      0.290463  
      93A      0.293271    94A      0.302665    95A      0.305640  
      96A      0.311154    97A      0.319213    98A      0.322951  
      99A      0.324417   100A      0.329532   101A      0.330459  
     102A      0.336401   103A      0.337670   104A      0.340802  
     105A      0.349711   106A      0.355344   107A      0.369048  
     108A      0.377293   109A      0.378780   110A      0.387459  
     111A      0.393381   112A      0.395638   113A      0.398541  
     114A      0.401388   115A      0.406212   116A      0.412660  
     117A      0.416568   118A      0.425838   119A      0.434646  
     120A      0.436879   121A      0.439670   122A      0.448032  
     123A      0.452063   124A      0.456744   125A      0.459536  
     126A      0.460017   127A      0.464956   128A      0.483579  
     129A      0.484289   130A      0.489297   131A      0.498966  
     132A      0.504330   133A      0.521445   134A      0.523224  
     135A      0.532379   136A      0.542801   137A      0.546409  
     138A      0.553514   139A      0.554955   140A      0.560358  
     141A      0.570130   142A      0.581150   143A      0.582454  
     144A      0.585114   145A      0.594336   146A      0.600755  
     147A      0.610147   148A      0.614868   149A      0.625956  
     150A      0.632048   151A      0.639725   152A      0.642275  
     153A      0.647424   154A      0.650689   155A      0.652413  
     156A      0.653804   157A      0.654534   158A      0.663783  
     159A      0.666684   160A      0.680873   161A      0.689483  
     162A      0.700034   163A      0.703985   164A      0.705225  
     165A      0.706168   166A      0.711008   167A      0.731778  
     168A      0.742490   169A      0.743180   170A      0.747544  
     171A      0.754527   172A      0.758979   173A      0.773252  
     174A      0.785163   175A      0.786777   176A      0.803721  
     177A      0.804080   178A      0.813155   179A      0.816096  
     180A      0.819362   181A      0.828825   182A      0.837436  
     183A      0.839982   184A      0.845295   185A      0.850489  
     186A      0.859377   187A      0.862554   188A      0.870775  
     189A      0.879034   190A      0.883524   191A      0.891088  
     192A      0.899747   193A      0.905355   194A      0.910056  
     195A      0.926568   196A      0.933156   197A      0.937309  
     198A      0.940426   199A      0.959513   200A      0.971060  
     201A      0.972357   202A      0.973818   203A      0.981484  
     204A      0.988011   205A      0.998333   206A      1.005694  
     207A      1.010519   208A      1.019071   209A      1.023470  
     210A      1.042958   211A      1.051305   212A      1.061348  
     213A      1.070806   214A      1.085335   215A      1.096778  
     216A      1.101434   217A      1.106271   218A      1.113606  
     219A      1.117640   220A      1.136254   221A      1.137266  
     222A      1.169580   223A      1.175621   224A      1.187680  
     225A      1.218719   226A      1.229664   227A      1.235669  
     228A      1.244535   229A      1.261747   230A      1.265102  
     231A      1.273690   232A      1.287225   233A      1.300860  
     234A      1.305496   235A      1.312901   236A      1.318536  
     237A      1.334198   238A      1.336511   239A      1.369191  
     240A      1.378509   241A      1.401286   242A      1.409460  
     243A      1.416796   244A      1.422155   245A      1.431065  
     246A      1.444375   247A      1.452925   248A      1.471324  
     249A      1.485619   250A      1.498824   251A      1.503013  
     252A      1.518992   253A      1.524391   254A      1.532553  
     255A      1.540441   256A      1.554375   257A      1.561257  
     258A      1.575346   259A      1.586443   260A      1.593097  
     261A      1.595125   262A      1.609824   263A      1.617826  
     264A      1.642374   265A      1.652291   266A      1.664596  
     267A      1.670008   268A      1.686627   269A      1.695252  
     270A      1.704085   271A      1.722014   272A      1.724545  
     273A      1.727511   274A      1.733232   275A      1.741887  
     276A      1.763408   277A      1.775629   278A      1.784964  
     279A      1.798093   280A      1.813566   281A      1.826785  
     282A      1.851078   283A      1.852012   284A      1.863598  
     285A      1.867379   286A      1.887222   287A      1.904586  
     288A      1.909174   289A      1.928645   290A      1.933047  
     291A      1.935673   292A      1.953107   293A      1.959967  
     294A      1.962312   295A      2.014059   296A      2.032867  
     297A      2.033905   298A      2.044758   299A      2.076323  
     300A      2.077104   301A      2.088792   302A      2.111345  
     303A      2.117246   304A      2.124470   305A      2.133302  
     306A      2.138034   307A      2.167864   308A      2.175846  
     309A      2.187057   310A      2.220058   311A      2.225188  
     312A      2.227970   313A      2.229869   314A      2.245016  
     315A      2.269225   316A      2.285264   317A      2.286006  
     318A      2.301452   319A      2.304339   320A      2.318913  
     321A      2.336182   322A      2.352391   323A      2.362680  
     324A      2.380138   325A      2.384194   326A      2.386068  
     327A      2.396642   328A      2.409956   329A      2.458358  
     330A      2.482429   331A      2.492369   332A      2.494614  
     333A      2.508102   334A      2.538581   335A      2.580200  
     336A      2.587043   337A      2.621822   338A      2.626237  
     339A      2.635128   340A      2.666064   341A      2.714063  
     342A      2.718845   343A      2.730625   344A      2.759977  
     345A      2.767114   346A      2.786679   347A      2.805440  
     348A      2.823942   349A      2.837543   350A      2.877487  
     351A      2.883100   352A      2.886399   353A      2.912091  
     354A      2.925563   355A      2.941388   356A      3.004216  
     357A      3.014693   358A      3.038242   359A      3.070676  
     360A      3.109568   361A      3.156908   362A      3.172877  
     363A      3.231779   364A      3.244839   365A      3.251778  
     366A      3.280688   367A      3.319993   368A      3.356786  
     369A      3.366010   370A      3.382762   371A      3.435520  
     372A      3.454846   373A      3.504024   374A      3.550691  
     375A      3.681152   376A      3.724897   377A      3.738973  
     378A      3.743825   379A      3.771271   380A      3.779404  
     381A      3.786538   382A      3.817767   383A      3.850438  
     384A      3.944944   385A      3.948783   386A      4.020705  
     387A      4.031875   388A      4.105416   389A      4.168455  
     390A      4.202343   391A      4.266544   392A      4.489813  
     393A      4.520285   394A      4.557238   395A      4.713986  
     396A      4.868065   397A      4.914922   398A      4.934769  
     399A      4.954270   400A      4.983977   401A      5.002579  
     402A      5.017038   403A      5.041696   404A      5.224961  
     405A      5.287664   406A      5.583209   407A      5.749664  
     408A      5.882192   409A      5.997602   410A      6.288099  
     411A      6.407158   412A      6.542075   413A      6.857246  
     414A     18.365365   415A     18.865234   416A     33.472561  
     417A     33.485968  

    Final Occupation by Irrep:
              A 
    DOCC [    38 ]

  Energy converged.

  @DF-RHF Final Energy:  -510.04436860230624

   => Energetics <=

    Nuclear Repulsion Energy =            552.0507759800340182
    One-Electron Energy =               -1788.8029553477986155
    Two-Electron Energy =                 726.7078107654584755
    DFT Exchange-Correlation Energy =       0.0000000000000000
    Empirical Dispersion Energy =           0.0000000000000000
    PCM Polarization Energy =               0.0000000000000000
    EFP Energy =                            0.0000000000000000
    Total Energy =                       -510.0443686023062355



Properties will be evaluated at   0.000000,   0.000000,   0.000000 Bohr

Properties computed using the SCF density matrix

  Nuclear Dipole Moment: (a.u.)
     X:  -214.1436      Y:    16.8161      Z:    -4.0440

  Electronic Dipole Moment: (a.u.)
     X:   216.4153      Y:   -19.6022      Z:     4.0531

  Dipole Moment: (a.u.)
     X:     2.2718      Y:    -2.7861      Z:     0.0091     Total:     3.5949

  Dipole Moment: (Debye)
     X:     5.7742      Y:    -7.0815      Z:     0.0233     Total:     9.1373


*** tstop() called on gp08 at Thu Jun  3 09:55:35 2021
Module time:
	user time   =      56.79 seconds =       0.95 minutes
	system time =       1.55 seconds =       0.03 minutes
	total time  =         59 seconds =       0.98 minutes
Total time:
	user time   =     155.56 seconds =       2.59 minutes
	system time =       4.57 seconds =       0.08 minutes
	total time  =        161 seconds =       2.68 minutes

  //>>>>>>>>>>>>>>>>>>>>>>>>>>>>>>>>>>>//
  //            Monomer B HF           //
  //<<<<<<<<<<<<<<<<<<<<<<<<<<<<<<<<<<<//


*** tstart() called on gp08
*** at Thu Jun  3 09:55:35 2021

   => Loading Basis Set <=

    Name: AUG-CC-PVDZ
    Role: ORBITAL
    Keyword: BASIS
    atoms 1, 12, 18, 22    entry O          line   243 file /usr/local/anaconda/5.0.1-Python3.5-gcc5/envs/p4env/share/psi4/basis/aug-cc-pvdz.gbs 
    atoms 2-6, 9-11, 19-20 entry C          line   171 file /usr/local/anaconda/5.0.1-Python3.5-gcc5/envs/p4env/share/psi4/basis/aug-cc-pvdz.gbs 
    atoms 7                entry N          line   207 file /usr/local/anaconda/5.0.1-Python3.5-gcc5/envs/p4env/share/psi4/basis/aug-cc-pvdz.gbs 
    atoms 8, 13-17, 21, 23 entry H          line    35 file /usr/local/anaconda/5.0.1-Python3.5-gcc5/envs/p4env/share/psi4/basis/aug-cc-pvdz.gbs 


         ---------------------------------------------------------
                                   SCF
            by Justin Turney, Rob Parrish, and Andy Simmonett
                              RHF Reference
                        1 Threads,  45776 MiB Core
         ---------------------------------------------------------

  ==> Geometry <==

    Molecular point group: c1
    Full point group: C1

    Geometry (in Angstrom), charge = -1, multiplicity = 1:

       Center              X                  Y                   Z               Mass       
    ------------   -----------------  -----------------  -----------------  -----------------
           O(Gh)     -4.103936330600     1.546485695092    -0.037666064151    15.994914619560
           C(Gh)     -2.999256330600     1.021715695092    -0.033476064151    12.000000000000
           C(Gh)     -2.873076330600    -0.453554304908    -0.029916064151    12.000000000000
           C(Gh)     -1.646916330600    -0.971984304908    -0.026896064151    12.000000000000
           C(Gh)     -1.269016330600    -2.376434304908    -0.021666064151    12.000000000000
           C(Gh)      0.077533669400    -2.382794304908    -0.021936064151    12.000000000000
           N(Gh)      0.580493669400    -1.100354304908    -0.026896064151    14.003074004780
           H(Gh)      1.566543669400    -0.879754304908    -0.026876064151     1.007825032070
           C(Gh)     -0.425786330600    -0.170304304908    -0.026896064151    12.000000000000
           C(Gh)     -0.417086330600     1.160105695092    -0.025506064151    12.000000000000
           C(Gh)     -1.713136330600     1.864655695092    -0.030106064151    12.000000000000
           O(Gh)     -1.753426330600     3.087275695092    -0.029856064151    15.994914619560
           H(Gh)     -3.784016330600    -1.035734304908    -0.031156064151     1.007825032070
           H(Gh)     -1.932236330600    -3.224844304908    -0.017236064151     1.007825032070
           H(Gh)      0.743233669400    -3.235024304908    -0.017786064151     1.007825032070
           H(Gh)      0.482473669400     1.758005695092    -0.020086064151     1.007825032070
           H          5.414593669400     0.453245695092     1.055043935849     1.007825032070
           O          3.304703669400    -1.652614304908     0.070913935849    15.994914619560
           C          5.208593669400    -0.160894304908     0.154033935849    12.000000000000
           C          3.696743669400    -0.453194304908     0.066693935849    12.000000000000
           H          5.792323669400    -1.100064304908     0.201463935849     1.007825032070
           O          2.946023669400     0.605145695092    -0.009356064151    15.994914619560
           H          5.525343669400     0.435695695092    -0.726556064151     1.007825032070

  Running in c1 symmetry.

  Rotational constants: A =      0.03891  B =      0.01041  C =      0.00823 [cm^-1]
  Rotational constants: A =   1166.52863  B =    312.11581  C =    246.66591 [MHz]
  Nuclear repulsion =  110.535374137955301

  Charge       = -1
  Multiplicity = 1
  Electrons    = 32
  Nalpha       = 16
  Nbeta        = 16

  ==> Algorithm <==

  SCF Algorithm Type is DF.
  DIIS enabled.
  MOM disabled.
  Fractional occupation disabled.
  Guess Type is SAD.
  Energy threshold   = 1.00e-08
  Density threshold  = 1.00e-08
  Integral threshold = 0.00e+00

  ==> Primary Basis <==

  Basis Set: AUG-CC-PVDZ
    Blend: AUG-CC-PVDZ
    Number of shells: 175
    Number of basis function: 417
    Number of Cartesian functions: 447
    Spherical Harmonics?: true
    Max angular momentum: 2

   => Loading Basis Set <=

    Name: (AUG-CC-PVDZ AUX)
    Role: JKFIT
    Keyword: DF_BASIS_SCF
    atoms 1, 12, 18, 22    entry O          line   269 file /usr/local/anaconda/5.0.1-Python3.5-gcc5/envs/p4env/share/psi4/basis/aug-cc-pvdz-jkfit.gbs 
    atoms 2-6, 9-11, 19-20 entry C          line   153 file /usr/local/anaconda/5.0.1-Python3.5-gcc5/envs/p4env/share/psi4/basis/aug-cc-pvdz-jkfit.gbs 
    atoms 7                entry N          line   211 file /usr/local/anaconda/5.0.1-Python3.5-gcc5/envs/p4env/share/psi4/basis/aug-cc-pvdz-jkfit.gbs 
    atoms 8, 13-17, 21, 23 entry H          line    69 file /usr/local/anaconda/5.0.1-Python3.5-gcc5/envs/p4env/share/psi4/basis/aug-cc-pvdz-jkfit.gbs 

  ==> Pre-Iterations <==

   -------------------------------------------------------
    Irrep   Nso     Nmo     Nalpha   Nbeta   Ndocc  Nsocc
   -------------------------------------------------------
     A        417     417       0       0       0       0
   -------------------------------------------------------
    Total     417     417      16      16      16       0
   -------------------------------------------------------

  ==> Integral Setup <==

  ==> DFJK: Density-Fitted J/K Matrices <==

    J tasked:                  Yes
    K tasked:                  Yes
    wK tasked:                  No
    OpenMP threads:              1
    Integrals threads:           1
    Memory (MB):             34332
    Algorithm:                Core
    Integral Cache:           LOAD
    Schwarz Cutoff:          1E-12
    Fitting Condition:       1E-12

   => Auxiliary Basis Set <=

  Basis Set: (AUG-CC-PVDZ AUX)
    Blend: AUG-CC-PVDZ-JKFIT
    Number of shells: 516
    Number of basis function: 1546
    Number of Cartesian functions: 1795
    Spherical Harmonics?: true
    Max angular momentum: 3

  Minimum eigenvalue in the overlap matrix is 1.9566212550E-06.
  Using Symmetric Orthogonalization.

  SCF Guess: Superposition of Atomic Densities via on-the-fly atomic UHF.

  ==> Iterations <==

                           Total Energy        Delta E     RMS |[F,P]|

   @DF-RHF iter   0:  -232.36007117357437   -2.32360e+02   7.45841e-03 
   @DF-RHF iter   1:  -227.07939689287883    5.28067e+00   1.22162e-03 
   @DF-RHF iter   2:  -227.22589496740883   -1.46498e-01   6.63702e-04 DIIS
   @DF-RHF iter   3:  -227.26363726729710   -3.77423e-02   1.59308e-04 DIIS
   @DF-RHF iter   4:  -227.26887132678081   -5.23406e-03   8.51205e-05 DIIS
   @DF-RHF iter   5:  -227.26981641213462   -9.45085e-04   2.11526e-05 DIIS
   @DF-RHF iter   6:  -227.26996321675571   -1.46805e-04   7.03210e-06 DIIS
   @DF-RHF iter   7:  -227.26997627521143   -1.30585e-05   2.98517e-06 DIIS
   @DF-RHF iter   8:  -227.26997758814218   -1.31293e-06   1.09830e-06 DIIS
   @DF-RHF iter   9:  -227.26997788148594   -2.93344e-07   3.59325e-07 DIIS
   @DF-RHF iter  10:  -227.26997792479210   -4.33062e-08   1.52916e-07 DIIS
   @DF-RHF iter  11:  -227.26997793395321   -9.16111e-09   4.87757e-08 DIIS
   @DF-RHF iter  12:  -227.26997793488960   -9.36382e-10   1.21498e-08 DIIS
   @DF-RHF iter  13:  -227.26997793493877   -4.91696e-11   3.61203e-09 DIIS

  ==> Post-Iterations <==

    Orbital Energies (a.u.)
    -----------------------

    Doubly Occupied:                                                      

       1A    -20.304860     2A    -20.292059     3A    -11.146750  
       4A    -11.064076     5A     -1.153540     6A     -1.049190  
       7A     -0.794734     8A     -0.514714     9A     -0.414987  
      10A     -0.410229    11A     -0.408539    12A     -0.353453  
      13A     -0.309619    14A     -0.200666    15A     -0.193908  
      16A     -0.183047  

    Virtual:                                                              

      17A      0.092569    18A      0.112430    19A      0.122567  
      20A      0.141590    21A      0.142864    22A      0.152582  
      23A      0.160781    24A      0.162292    25A      0.164276  
      26A      0.165309    27A      0.179872    28A      0.184974  
      29A      0.192142    30A      0.194496    31A      0.205627  
      32A      0.207664    33A      0.209586    34A      0.215150  
      35A      0.226614    36A      0.229879    37A      0.233474  
      38A      0.243213    39A      0.246817    40A      0.251955  
      41A      0.267365    42A      0.271424    43A      0.272457  
      44A      0.272968    45A      0.278435    46A      0.283486  
      47A      0.289299    48A      0.293050    49A      0.298338  
      50A      0.301772    51A      0.304154    52A      0.309290  
      53A      0.315784    54A      0.323507    55A      0.325209  
      56A      0.330711    57A      0.333240    58A      0.334493  
      59A      0.347300    60A      0.350291    61A      0.371779  
      62A      0.372244    63A      0.379080    64A      0.383962  
      65A      0.386528    66A      0.388071    67A      0.394435  
      68A      0.400558    69A      0.402489    70A      0.408212  
      71A      0.422922    72A      0.430104    73A      0.440741  
      74A      0.444610    75A      0.449880    76A      0.459941  
      77A      0.466674    78A      0.471522    79A      0.485517  
      80A      0.487533    81A      0.491411    82A      0.493597  
      83A      0.498084    84A      0.504951    85A      0.511685  
      86A      0.514376    87A      0.521376    88A      0.527106  
      89A      0.530459    90A      0.540661    91A      0.549309  
      92A      0.557403    93A      0.567100    94A      0.569155  
      95A      0.573019    96A      0.581232    97A      0.589659  
      98A      0.595395    99A      0.596090   100A      0.601788  
     101A      0.607918   102A      0.611176   103A      0.612105  
     104A      0.623044   105A      0.634998   106A      0.637755  
     107A      0.650581   108A      0.652851   109A      0.660009  
     110A      0.666409   111A      0.669686   112A      0.678426  
     113A      0.681640   114A      0.690191   115A      0.700766  
     116A      0.702874   117A      0.711871   118A      0.713073  
     119A      0.724623   120A      0.727586   121A      0.734972  
     122A      0.742002   123A      0.763210   124A      0.764745  
     125A      0.771190   126A      0.771867   127A      0.780048  
     128A      0.783537   129A      0.787698   130A      0.801055  
     131A      0.805442   132A      0.812054   133A      0.819621  
     134A      0.824495   135A      0.834333   136A      0.837268  
     137A      0.842916   138A      0.845388   139A      0.859837  
     140A      0.873823   141A      0.881365   142A      0.885369  
     143A      0.888861   144A      0.912746   145A      0.918437  
     146A      0.927875   147A      0.929066   148A      0.935242  
     149A      0.943906   150A      0.948162   151A      0.953478  
     152A      0.966757   153A      0.969724   154A      0.973640  
     155A      0.974621   156A      0.989862   157A      0.992168  
     158A      0.998232   159A      1.001677   160A      1.009562  
     161A      1.025704   162A      1.026962   163A      1.036401  
     164A      1.043654   165A      1.066696   166A      1.068175  
     167A      1.082778   168A      1.096360   169A      1.101890  
     170A      1.110896   171A      1.118860   172A      1.126010  
     173A      1.128885   174A      1.149249   175A      1.162130  
     176A      1.169933   177A      1.174562   178A      1.189887  
     179A      1.204573   180A      1.210456   181A      1.221954  
     182A      1.231857   183A      1.234341   184A      1.250235  
     185A      1.251277   186A      1.260582   187A      1.265863  
     188A      1.272276   189A      1.277657   190A      1.285375  
     191A      1.288125   192A      1.308683   193A      1.314350  
     194A      1.330485   195A      1.344866   196A      1.348815  
     197A      1.357750   198A      1.374776   199A      1.390474  
     200A      1.397249   201A      1.414292   202A      1.424412  
     203A      1.430526   204A      1.437302   205A      1.441048  
     206A      1.453370   207A      1.461809   208A      1.486894  
     209A      1.488939   210A      1.508753   211A      1.518756  
     212A      1.533957   213A      1.539541   214A      1.549876  
     215A      1.551147   216A      1.557954   217A      1.564442  
     218A      1.569293   219A      1.583775   220A      1.590089  
     221A      1.595760   222A      1.611901   223A      1.614898  
     224A      1.623773   225A      1.650599   226A      1.658868  
     227A      1.662493   228A      1.673628   229A      1.689157  
     230A      1.695193   231A      1.716739   232A      1.737549  
     233A      1.750330   234A      1.754282   235A      1.777239  
     236A      1.789170   237A      1.817562   238A      1.866684  
     239A      1.870092   240A      1.883793   241A      1.900970  
     242A      1.910319   243A      1.916650   244A      1.929933  
     245A      1.967842   246A      2.004076   247A      2.005394  
     248A      2.015622   249A      2.033918   250A      2.044135  
     251A      2.052822   252A      2.056283   253A      2.089753  
     254A      2.135532   255A      2.149981   256A      2.183499  
     257A      2.195268   258A      2.195616   259A      2.246449  
     260A      2.255812   261A      2.274617   262A      2.289635  
     263A      2.307709   264A      2.315347   265A      2.325006  
     266A      2.333740   267A      2.344773   268A      2.350779  
     269A      2.362702   270A      2.379097   271A      2.384373  
     272A      2.392800   273A      2.401032   274A      2.403896  
     275A      2.430815   276A      2.434740   277A      2.445468  
     278A      2.451597   279A      2.456606   280A      2.456997  
     281A      2.466226   282A      2.480735   283A      2.512321  
     284A      2.528328   285A      2.556547   286A      2.564912  
     287A      2.581588   288A      2.590296   289A      2.630386  
     290A      2.634067   291A      2.640154   292A      2.676858  
     293A      2.695795   294A      2.702751   295A      2.713096  
     296A      2.726718   297A      2.738727   298A      2.758328  
     299A      2.780511   300A      2.796679   301A      2.801737  
     302A      2.815421   303A      2.829834   304A      2.832585  
     305A      2.877170   306A      2.891763   307A      2.900279  
     308A      2.919761   309A      2.941562   310A      2.950047  
     311A      2.960318   312A      2.962146   313A      3.005895  
     314A      3.020426   315A      3.049100   316A      3.073741  
     317A      3.104574   318A      3.130987   319A      3.135830  
     320A      3.155056   321A      3.159285   322A      3.194146  
     323A      3.205695   324A      3.238876   325A      3.249387  
     326A      3.266913   327A      3.289805   328A      3.335354  
     329A      3.353194   330A      3.376141   331A      3.431216  
     332A      3.456338   333A      3.458800   334A      3.460377  
     335A      3.499063   336A      3.560471   337A      3.575324  
     338A      3.609909   339A      3.634877   340A      3.664484  
     341A      3.692955   342A      3.714173   343A      3.721514  
     344A      3.795879   345A      3.820709   346A      3.865699  
     347A      3.931956   348A      3.957951   349A      3.985798  
     350A      3.993760   351A      4.007587   352A      4.011887  
     353A      4.036252   354A      4.057896   355A      4.070500  
     356A      4.094429   357A      4.101693   358A      4.106663  
     359A      4.136574   360A      4.155394   361A      4.191533  
     362A      4.222228   363A      4.249671   364A      4.291312  
     365A      4.307630   366A      4.351712   367A      4.382754  
     368A      4.462662   369A      4.491053   370A      4.549005  
     371A      4.616739   372A      4.700793   373A      4.738523  
     374A      4.795202   375A      4.880698   376A      4.914817  
     377A      5.011652   378A      5.043655   379A      5.068814  
     380A      5.075949   381A      5.084005   382A      5.148355  
     383A      5.153128   384A      5.167325   385A      5.176186  
     386A      5.244451   387A      5.263836   388A      5.313839  
     389A      5.441526   390A      5.486162   391A      5.601846  
     392A      5.645135   393A      5.689867   394A      5.841879  
     395A      5.943972   396A      6.029474   397A      6.053001  
     398A      6.054601   399A      6.167410   400A      6.190846  
     401A      6.387531   402A      6.425415   403A      6.488748  
     404A      6.579276   405A      6.840506   406A      7.428584  
     407A     18.200183   408A     18.517395   409A     18.692239  
     410A     18.717622   411A     19.103159   412A     19.297867  
     413A     19.825349   414A     20.489188   415A     25.678878  
     416A     33.613808   417A     33.637593  

    Final Occupation by Irrep:
              A 
    DOCC [    16 ]

  Energy converged.

  @DF-RHF Final Energy:  -227.26997793493877

   => Energetics <=

    Nuclear Repulsion Energy =            110.5353741379553014
    One-Electron Energy =                -538.0219672107582483
    Two-Electron Energy =                 200.2166151378642098
    DFT Exchange-Correlation Energy =       0.0000000000000000
    Empirical Dispersion Energy =           0.0000000000000000
    PCM Polarization Energy =               0.0000000000000000
    EFP Energy =                            0.0000000000000000
    Total Energy =                       -227.2699779349387654



Properties will be evaluated at   0.000000,   0.000000,   0.000000 Bohr

Properties computed using the SCF density matrix

  Nuclear Dipole Moment: (a.u.)
     X:   227.0886      Y:   -23.1972      Z:     4.4348

  Electronic Dipole Moment: (a.u.)
     X:  -232.6819      Y:    24.1368      Z:    -4.4713

  Dipole Moment: (a.u.)
     X:    -5.5933      Y:     0.9397      Z:    -0.0366     Total:     5.6718

  Dipole Moment: (Debye)
     X:   -14.2168      Y:     2.3884      Z:    -0.0929     Total:    14.4163


*** tstop() called on gp08 at Thu Jun  3 09:56:14 2021
Module time:
	user time   =      37.55 seconds =       0.63 minutes
	system time =       0.98 seconds =       0.02 minutes
	total time  =         39 seconds =       0.65 minutes
Total time:
	user time   =     193.12 seconds =       3.22 minutes
	system time =       5.55 seconds =       0.09 minutes
	total time  =        200 seconds =       3.33 minutes
   => Loading Basis Set <=

    Name: (AUG-CC-PVDZ AUX)
    Role: RIFIT
    Keyword: DF_BASIS_SAPT
    atoms 1, 12, 18, 22    entry O          line   203 file /usr/local/anaconda/5.0.1-Python3.5-gcc5/envs/p4env/share/psi4/basis/aug-cc-pvdz-ri.gbs 
    atoms 2-6, 9-11, 19-20 entry C          line   111 file /usr/local/anaconda/5.0.1-Python3.5-gcc5/envs/p4env/share/psi4/basis/aug-cc-pvdz-ri.gbs 
    atoms 7                entry N          line   157 file /usr/local/anaconda/5.0.1-Python3.5-gcc5/envs/p4env/share/psi4/basis/aug-cc-pvdz-ri.gbs 
    atoms 8, 13-17, 21, 23 entry H          line    29 file /usr/local/anaconda/5.0.1-Python3.5-gcc5/envs/p4env/share/psi4/basis/aug-cc-pvdz-ri.gbs 


  //>>>>>>>>>>>>>>>>>>>>>>>>>>>>>>>>>>>//
  //               SAPT2+              //
  //<<<<<<<<<<<<<<<<<<<<<<<<<<<<<<<<<<<//


*** tstart() called on gp08
*** at Thu Jun  3 09:56:14 2021

        SAPT2+  
    Ed Hohenstein
     6 June 2009

      Orbital Information
  --------------------------
    NSO        =       417
    NMO        =       417
    NRI        =      1264
    NOCC A     =        38
    NOCC B     =        16
    FOCC A     =         0
    FOCC B     =         0
    NVIR A     =       379
    NVIR B     =       401

    Estimated memory usage: 7198.7 MB

    Natural Orbital Cutoff:   1.000E-06
    Disp(T3) Truncation:            Yes
    CCD (vv|vv) Truncation:         Yes
    MBPT T2 Truncation:             Yes

    Monomer A: 126 virtual orbitals dropped
    Monomer B: 282 virtual orbitals dropped

    Elst10,r            =    -0.059069167803 [Eh]
    Exch10 (S^2)        =     0.033063331482 [Eh]
    Exch10              =     0.033708314885 [Eh]
    Ind20,r (A<-B)      =    -0.016080973306 [Eh]
    Ind20,r (B<-A)      =    -0.013519861969 [Eh]
    Ind20,r             =    -0.029600835274 [Eh]
    Exch-Ind20,r (A<-B) =     0.002468775892 [Eh]
    Exch-Ind20,r (B<-A) =     0.009638946176 [Eh]
    Exch-Ind20,r        =     0.012107722068 [Eh]
    Disp20              =    -0.014715925368 [Eh]
    Disp20 (NO)         =    -0.013529066286 [Eh]
    Exch-Disp20         =     0.003112993975 [Eh]
    Elst12,r            =     0.000418056887 [Eh]
    Exch11              =    -0.000884515602 [Eh]
    Exch12              =     0.008748183280 [Eh]
    Ind22               =    -0.005624264076 [Eh]
    Disp21              =     0.001809080431 [Eh]
    Disp22 (SDQ)        =    -0.001088268820 [Eh]

    (i =   1 of  16)       1070 seconds
    (i =   2 of  16)       2146 seconds
    (i =   3 of  16)       3205 seconds
    (i =   4 of  16)       4262 seconds
    (i =   5 of  16)       5314 seconds
    (i =   6 of  16)       6364 seconds
    (i =   7 of  16)       7415 seconds
    (i =   8 of  16)       8466 seconds
    (i =   9 of  16)       9517 seconds
    (i =  10 of  16)      10568 seconds
    (i =  11 of  16)      11626 seconds
    (i =  12 of  16)      12687 seconds
    (i =  13 of  16)      13746 seconds
    (i =  14 of  16)      14805 seconds
    (i =  15 of  16)      15864 seconds
    (i =  16 of  16)      16923 seconds

    Disp220 (T)         =    -0.001198934973 [Eh]

    (i =   1 of  38)         90 seconds
    (i =   2 of  38)        180 seconds
    (i =   3 of  38)        270 seconds
    (i =   4 of  38)        361 seconds
    (i =   5 of  38)        451 seconds
    (i =   6 of  38)        541 seconds
    (i =   7 of  38)        631 seconds
    (i =   8 of  38)        722 seconds
    (i =   9 of  38)        812 seconds
    (i =  10 of  38)        902 seconds
    (i =  11 of  38)        992 seconds
    (i =  12 of  38)       1083 seconds
    (i =  13 of  38)       1173 seconds
    (i =  14 of  38)       1263 seconds
    (i =  15 of  38)       1354 seconds
    (i =  16 of  38)       1444 seconds
    (i =  17 of  38)       1534 seconds
    (i =  18 of  38)       1624 seconds
    (i =  19 of  38)       1715 seconds
    (i =  20 of  38)       1805 seconds
    (i =  21 of  38)       1895 seconds
    (i =  22 of  38)       1985 seconds
    (i =  23 of  38)       2075 seconds
    (i =  24 of  38)       2166 seconds
    (i =  25 of  38)       2256 seconds
    (i =  26 of  38)       2346 seconds
    (i =  27 of  38)       2436 seconds
    (i =  28 of  38)       2527 seconds
    (i =  29 of  38)       2617 seconds
    (i =  30 of  38)       2707 seconds
    (i =  31 of  38)       2797 seconds
    (i =  32 of  38)       2887 seconds
    (i =  33 of  38)       2978 seconds
    (i =  34 of  38)       3068 seconds
    (i =  35 of  38)       3158 seconds
    (i =  36 of  38)       3248 seconds
    (i =  37 of  38)       3339 seconds
    (i =  38 of  38)       3429 seconds

    Disp202 (T)         =    -0.001561913084 [Eh]

    Disp22 (T)          =    -0.002760848057 [Eh]

    Est. Disp220 (T)    =    -0.001304113470 [Eh]
    Est. Disp202 (T)    =    -0.001698934419 [Eh]

    Est. Disp22 (T)     =    -0.003003047890 [Eh]

    SAPT Results 
  --------------------------------------------------------------------------------------------------------
    Electrostatics                -58.65111092 [mEh]     -36.80412929 [kcal/mol]    -153.98849171 [kJ/mol]
      Elst10,r                    -59.06916780 [mEh]     -37.06646395 [kcal/mol]    -155.08610007 [kJ/mol]
      Elst12,r                      0.41805689 [mEh]       0.26233467 [kcal/mol]       1.09760836 [kJ/mol]

    Exchange                       41.57198256 [mEh]      26.08681399 [kcal/mol]     109.14724022 [kJ/mol]
      Exch10                       33.70831489 [mEh]      21.15228782 [kcal/mol]      88.50118073 [kJ/mol]
      Exch10(S^2)                  33.06333148 [mEh]      20.74755461 [kcal/mol]      86.80777681 [kJ/mol]
      Exch11(S^2)                  -0.88451560 [mEh]      -0.55504194 [kcal/mol]      -2.32229571 [kJ/mol]
      Exch12(S^2)                   8.74818328 [mEh]       5.48956812 [kcal/mol]      22.96835520 [kJ/mol]

    Induction                     -27.94470279 [mEh]     -17.53556648 [kcal/mol]     -73.36881719 [kJ/mol]
      Ind20,r                     -29.60083527 [mEh]     -18.57480534 [kcal/mol]     -77.71699301 [kJ/mol]
      Ind22                        -5.62426408 [mEh]      -3.52927914 [kcal/mol]     -14.76650533 [kJ/mol]
      Exch-Ind20,r                 12.10772207 [mEh]       7.59771062 [kcal/mol]      31.78882429 [kJ/mol]
      Exch-Ind22                    2.30051029 [mEh]       1.44359206 [kcal/mol]       6.03998978 [kJ/mol]
      delta HF,r (2)               -7.12783581 [mEh]      -4.47278468 [kcal/mol]     -18.71413291 [kJ/mol]

    Dispersion                    -13.88516767 [mEh]      -8.71307462 [kcal/mol]     -36.45550772 [kJ/mol]
      Disp20                      -14.71592537 [mEh]      -9.23438297 [kcal/mol]     -38.63666205 [kJ/mol]
      Disp21                        1.80908043 [mEh]       1.13521516 [kcal/mol]       4.74974067 [kJ/mol]
      Disp22 (SDQ)                 -1.08826882 [mEh]      -0.68289902 [kcal/mol]      -2.85724979 [kJ/mol]
      Disp22 (T)                   -2.76084806 [mEh]      -1.73245838 [kcal/mol]      -7.24860657 [kJ/mol]
      Est. Disp22 (T)              -3.00304789 [mEh]      -1.88444108 [kcal/mol]      -7.88450223 [kJ/mol]
      Exch-Disp20                   3.11299397 [mEh]       1.95343329 [kcal/mol]       8.17316568 [kJ/mol]

  Total HF                        -49.98180193 [mEh]     -31.36405554 [kcal/mol]    -131.22722097 [kJ/mol]
  Total SAPT0                     -61.58473332 [mEh]     -38.64500522 [kcal/mol]    -161.69071734 [kJ/mol]
  Total SAPT2                     -56.62676254 [mEh]     -35.53383145 [kcal/mol]    -148.67356505 [kJ/mol]
  Total SAPT2+                    -58.90899882 [mEh]     -36.96595639 [kcal/mol]    -154.66557640 [kJ/mol]

  Special recipe for scaled SAPT0 (see Manual):
    Electrostatics sSAPT0         -59.06916780 [mEh]     -37.06646395 [kcal/mol]    -155.08610007 [kJ/mol]
    Exchange sSAPT0                33.70831489 [mEh]      21.15228782 [kcal/mol]      88.50118073 [kJ/mol]
    Induction sSAPT0              -23.89846193 [mEh]     -14.99651189 [kcal/mol]     -62.74541179 [kJ/mol]
    Dispersion sSAPT0             -11.41717408 [mEh]      -7.16438520 [kcal/mol]     -29.97579054 [kJ/mol]
  Total sSAPT0                    -60.67648892 [mEh]     -38.07507323 [kcal/mol]    -159.30612167 [kJ/mol]
  --------------------------------------------------------------------------------------------------------

*** tstop() called on gp08 at Thu Jun  3 16:21:37 2021
Module time:
	user time   =   23028.44 seconds =     383.81 minutes
	system time =      92.62 seconds =       1.54 minutes
	total time  =      23123 seconds =     385.38 minutes
Total time:
	user time   =   23221.76 seconds =     387.03 minutes
	system time =      98.17 seconds =       1.64 minutes
	total time  =      23323 seconds =     388.72 minutes

*** Psi4 exiting successfully. Buy a developer a beer!
