dhp                                                                     
SP        RM062X                                                      Gen                 
Number of atoms                            I                7
Info1-9                                    I   N=           9
         113         113           0           0           0         110
           1          18       -5502
Full Title                                 C   N=           1
dhp         
Route                                      C   N=           5
#P M062X/Gen field=Y-8 int=(grid=ultrafine) polar=Dipole    
Charge                                     I               -1
Multiplicity                               I                1
Number of electrons                        I               50
Number of alpha electrons                  I               25
Number of beta electrons                   I               25
Number of basis functions                  I              146
Number of independent functions            I              146
Number of point charges in /Mol/           I                0
Number of translation vectors              I                0
Atomic numbers                             I   N=           7
          15           8           8           8           1           8
           1
Nuclear charges                            R   N=           7
  1.50000000E+01  8.00000000E+00  8.00000000E+00  8.00000000E+00  1.00000000E+00
  8.00000000E+00  1.00000000E+00
Current cartesian coordinates              R   N=          21
  9.96731771E-04  2.20234617E-01  2.76478681E-01  1.26116075E-02  3.04296290E+00
  4.88912571E-01 -6.36173205E-03 -1.67265143E+00  2.42796422E+00  2.47230083E+00
 -6.20740897E-01 -1.60766835E+00  2.91270208E+00 -2.25921824E+00 -8.83695398E-01
 -2.47799540E+00 -6.00701404E-01 -1.60688026E+00 -2.93209549E+00 -2.23525441E+00
 -8.82110277E-01
Number of symbols in /Mol/                 I                0
Int Atom Types                             I   N=           7
           0           0           0           0           0           0
           0
Force Field                                I                0
Atom Types                                 C   N=           7
                                                            
                        
MM charges                                 R   N=           7
  0.00000000E+00  0.00000000E+00  0.00000000E+00  0.00000000E+00  0.00000000E+00
  0.00000000E+00  0.00000000E+00
Integer atomic weights                     I   N=           7
          31          16          16          16           1          16
           1
Real atomic weights                        R   N=           7
  3.09737634E+01  1.59949146E+01  1.59949146E+01  1.59949146E+01  1.00782504E+00
  1.59949146E+01  1.00782504E+00
Atom fragment info                         I   N=           7
           0           0           0           0           0           0
           0
Atom residue num                           I   N=           7
           0           0           0           0           0           0
           0
Nuclear spins                              I   N=           7
           1           0           0           0           1           0
           1
Nuclear ZEff                               R   N=           7
 -1.29400000E+01 -5.60000000E+00 -5.60000000E+00 -5.60000000E+00 -1.00000000E+00
 -5.60000000E+00 -1.00000000E+00
Nuclear ZNuc                               R   N=           7
  1.50000000E+01  8.00000000E+00  8.00000000E+00  8.00000000E+00  1.00000000E+00
  8.00000000E+00  1.00000000E+00
Nuclear QMom                               R   N=           7
  0.00000000E+00  0.00000000E+00  0.00000000E+00  0.00000000E+00  0.00000000E+00
  0.00000000E+00  0.00000000E+00
Nuclear GFac                               R   N=           7
  1.13160000E+00  0.00000000E+00  0.00000000E+00  0.00000000E+00  2.79284600E+00
  0.00000000E+00  2.79284600E+00
MicOpt                                     I   N=           7
          -1          -1          -1          -1          -1          -1
          -1
Number of residues                         I                0
Number of secondary structures             I                0
SymInf integers                            I   N=          26
           1           1           1           1           1           0
           0           0           0           0           0           0
           0           0           0           0           0           0
           0           0           0           0           0           0
           0           0
RotTr to input orientation                 R   N=          12
  1.58467082E-02 -9.97199940E-01  7.30832468E-02 -9.97863049E-01 -1.11386609E-02
  6.43837374E-02 -6.33894096E-02 -7.39473418E-02 -9.95245484E-01  2.01115993E+00
  1.94358910E+00  2.74801273E-01
Number of contracted shells                I               64
Number of primitive shells                 I              128
Pure/Cartesian d shells                    I                0
Pure/Cartesian f shells                    I                0
Highest angular momentum                   I                2
Largest degree of contraction              I                6
Shell types                                I   N=          64
           0           0           0           0           0           0
           0           1           1           1           1           1
          -2          -2           0           0           0           0
           0           1           1           1          -2          -2
           0           0           0           0           0           1
           1           1          -2          -2           0           0
           0           0           0           1           1           1
          -2          -2           0           0           0           1
           1           0           0           0           0           0
           1           1           1          -2          -2           0
           0           0           1           1
Number of primitives per shell             I   N=          64
           6           3           1           1           1           1
           1           6           1           1           1           1
           2           2           5           2           1           1
           1           4           1           1           2           2
           5           2           1           1           1           4
           1           1           2           2           5           2
           1           1           1           4           1           1
           2           2           4           1           1           2
           2           5           2           1           1           1
           4           1           1           2           2           4
           1           1           2           2
Shell to atom map                          I   N=          64
           1           1           1           1           1           1
           1           1           1           1           1           1
           1           1           2           2           2           2
           2           2           2           2           2           2
           3           3           3           3           3           3
           3           3           3           3           4           4
           4           4           4           4           4           4
           4           4           5           5           5           5
           5           6           6           6           6           6
           6           6           6           6           6           7
           7           7           7           7
Primitive exponents                        R   N=         128
  7.74924300E+04  1.16057900E+04  2.64596000E+03  7.54980000E+02  2.48750000E+02
  9.11570000E+01  9.11570000E+01  3.62260000E+01  1.52110000E+01  4.71380000E+00
  1.78270000E+00  3.42500000E-01  1.24600000E-01  4.53000000E-02  3.84840000E+02
  9.05520000E+01  2.88060000E+01  1.06880000E+01  4.25210000E+00  1.74050000E+00
  5.97900000E-01  2.29200000E-01  8.38000000E-02  3.06000000E-02  5.97900000E-01
  2.29200000E-01  8.38000000E-02  3.06000000E-02  1.06622850E+04  1.59970970E+03
  3.64725260E+02  1.03651790E+02  3.39058050E+01  1.22874690E+01  4.75680500E+00
  1.00427100E+00  3.00686000E-01  9.00300000E-02  3.48564630E+01  7.84313100E+00
  2.30624900E+00  7.23164000E-01  2.14882000E-01  6.38500000E-02  2.30620000E+00
  7.23200000E-01  2.14900000E-01  6.39000000E-02  1.06622850E+04  1.59970970E+03
  3.64725260E+02  1.03651790E+02  3.39058050E+01  1.22874690E+01  4.75680500E+00
  1.00427100E+00  3.00686000E-01  9.00300000E-02  3.48564630E+01  7.84313100E+00
  2.30624900E+00  7.23164000E-01  2.14882000E-01  6.38500000E-02  2.30620000E+00
  7.23200000E-01  2.14900000E-01  6.39000000E-02  1.06622850E+04  1.59970970E+03
  3.64725260E+02  1.03651790E+02  3.39058050E+01  1.22874690E+01  4.75680500E+00
  1.00427100E+00  3.00686000E-01  9.00300000E-02  3.48564630E+01  7.84313100E+00
  2.30624900E+00  7.23164000E-01  2.14882000E-01  6.38500000E-02  2.30620000E+00
  7.23200000E-01  2.14900000E-01  6.39000000E-02  3.36850140E+01  5.09478800E+00
  1.15878600E+00  3.25840000E-01  1.02741000E-01  3.24000000E-02  1.15880000E+00
  3.25800000E-01  1.02700000E-01  3.24000000E-02  1.06622850E+04  1.59970970E+03
  3.64725260E+02  1.03651790E+02  3.39058050E+01  1.22874690E+01  4.75680500E+00
  1.00427100E+00  3.00686000E-01  9.00300000E-02  3.48564630E+01  7.84313100E+00
  2.30624900E+00  7.23164000E-01  2.14882000E-01  6.38500000E-02  2.30620000E+00
  7.23200000E-01  2.14900000E-01  6.39000000E-02  3.36850140E+01  5.09478800E+00
  1.15878600E+00  3.25840000E-01  1.02741000E-01  3.24000000E-02  1.15880000E+00
  3.25800000E-01  1.02700000E-01  3.24000000E-02
Contraction coefficients                   R   N=         128
  7.86998727E-04  6.10899012E-03  3.13679492E-02  1.24290799E-01  3.80681384E-01
  5.59988094E-01  1.63997236E-01  6.25927902E-01  2.62211378E-01  1.00000000E+00
  1.00000000E+00  1.00000000E+00  1.00000000E+00  1.00000000E+00  3.76499575E-03
  2.90099673E-02  1.22952861E-01  3.06469654E-01  4.41348502E-01  2.95816666E-01
  1.00000000E+00  1.00000000E+00  1.00000000E+00  1.00000000E+00  2.57098289E-01
  8.07536332E-01  6.80799999E-01  4.12315493E-01  1.90604745E-03  1.46782352E-02
  7.43263084E-02  2.75759025E-01  7.19364732E-01  6.69996511E-01  3.66229217E-01
  1.00000000E+00  1.00000000E+00  1.00000000E+00  1.99439284E-02  1.25155543E-01
  3.92261182E-01  6.27670401E-01  1.00000000E+00  1.00000000E+00  2.83613619E-01
  8.10264660E-01  6.73833443E-01  4.58004278E-01  1.90604745E-03  1.46782352E-02
  7.43263084E-02  2.75759025E-01  7.19364732E-01  6.69996511E-01  3.66229217E-01
  1.00000000E+00  1.00000000E+00  1.00000000E+00  1.99439284E-02  1.25155543E-01
  3.92261182E-01  6.27670401E-01  1.00000000E+00  1.00000000E+00  2.83613619E-01
  8.10264660E-01  6.73833443E-01  4.58004278E-01  1.90604745E-03  1.46782352E-02
  7.43263084E-02  2.75759025E-01  7.19364732E-01  6.69996511E-01  3.66229217E-01
  1.00000000E+00  1.00000000E+00  1.00000000E+00  1.99439284E-02  1.25155543E-01
  3.92261182E-01  6.27670401E-01  1.00000000E+00  1.00000000E+00  2.83613619E-01
  8.10264660E-01  6.73833443E-01  4.58004278E-01  8.76040453E-03  6.54229551E-02
  2.92849871E-01  7.27207417E-01  1.00000000E+00  1.00000000E+00  1.86447366E-01
  8.73088966E-01  9.76214574E-01  3.48056130E-02  1.90604745E-03  1.46782352E-02
  7.43263084E-02  2.75759025E-01  7.19364732E-01  6.69996511E-01  3.66229217E-01
  1.00000000E+00  1.00000000E+00  1.00000000E+00  1.99439284E-02  1.25155543E-01
  3.92261182E-01  6.27670401E-01  1.00000000E+00  1.00000000E+00  2.83613619E-01
  8.10264660E-01  6.73833443E-01  4.58004278E-01  8.76040453E-03  6.54229551E-02
  2.92849871E-01  7.27207417E-01  1.00000000E+00  1.00000000E+00  1.86447366E-01
  8.73088966E-01  9.76214574E-01  3.48056130E-02
Coordinates of each shell                  R   N=         192
  9.96731771E-04  2.20234617E-01  2.76478681E-01  9.96731771E-04  2.20234617E-01
  2.76478681E-01  9.96731771E-04  2.20234617E-01  2.76478681E-01  9.96731771E-04
  2.20234617E-01  2.76478681E-01  9.96731771E-04  2.20234617E-01  2.76478681E-01
  9.96731771E-04  2.20234617E-01  2.76478681E-01  9.96731771E-04  2.20234617E-01
  2.76478681E-01  9.96731771E-04  2.20234617E-01  2.76478681E-01  9.96731771E-04
  2.20234617E-01  2.76478681E-01  9.96731771E-04  2.20234617E-01  2.76478681E-01
  9.96731771E-04  2.20234617E-01  2.76478681E-01  9.96731771E-04  2.20234617E-01
  2.76478681E-01  9.96731771E-04  2.20234617E-01  2.76478681E-01  9.96731771E-04
  2.20234617E-01  2.76478681E-01  1.26116075E-02  3.04296290E+00  4.88912571E-01
  1.26116075E-02  3.04296290E+00  4.88912571E-01  1.26116075E-02  3.04296290E+00
  4.88912571E-01  1.26116075E-02  3.04296290E+00  4.88912571E-01  1.26116075E-02
  3.04296290E+00  4.88912571E-01  1.26116075E-02  3.04296290E+00  4.88912571E-01
  1.26116075E-02  3.04296290E+00  4.88912571E-01  1.26116075E-02  3.04296290E+00
  4.88912571E-01  1.26116075E-02  3.04296290E+00  4.88912571E-01  1.26116075E-02
  3.04296290E+00  4.88912571E-01 -6.36173205E-03 -1.67265143E+00  2.42796422E+00
 -6.36173205E-03 -1.67265143E+00  2.42796422E+00 -6.36173205E-03 -1.67265143E+00
  2.42796422E+00 -6.36173205E-03 -1.67265143E+00  2.42796422E+00 -6.36173205E-03
 -1.67265143E+00  2.42796422E+00 -6.36173205E-03 -1.67265143E+00  2.42796422E+00
 -6.36173205E-03 -1.67265143E+00  2.42796422E+00 -6.36173205E-03 -1.67265143E+00
  2.42796422E+00 -6.36173205E-03 -1.67265143E+00  2.42796422E+00 -6.36173205E-03
 -1.67265143E+00  2.42796422E+00  2.47230083E+00 -6.20740897E-01 -1.60766835E+00
  2.47230083E+00 -6.20740897E-01 -1.60766835E+00  2.47230083E+00 -6.20740897E-01
 -1.60766835E+00  2.47230083E+00 -6.20740897E-01 -1.60766835E+00  2.47230083E+00
 -6.20740897E-01 -1.60766835E+00  2.47230083E+00 -6.20740897E-01 -1.60766835E+00
  2.47230083E+00 -6.20740897E-01 -1.60766835E+00  2.47230083E+00 -6.20740897E-01
 -1.60766835E+00  2.47230083E+00 -6.20740897E-01 -1.60766835E+00  2.47230083E+00
 -6.20740897E-01 -1.60766835E+00  2.91270208E+00 -2.25921824E+00 -8.83695398E-01
  2.91270208E+00 -2.25921824E+00 -8.83695398E-01  2.91270208E+00 -2.25921824E+00
 -8.83695398E-01  2.91270208E+00 -2.25921824E+00 -8.83695398E-01  2.91270208E+00
 -2.25921824E+00 -8.83695398E-01 -2.47799540E+00 -6.00701404E-01 -1.60688026E+00
 -2.47799540E+00 -6.00701404E-01 -1.60688026E+00 -2.47799540E+00 -6.00701404E-01
 -1.60688026E+00 -2.47799540E+00 -6.00701404E-01 -1.60688026E+00 -2.47799540E+00
 -6.00701404E-01 -1.60688026E+00 -2.47799540E+00 -6.00701404E-01 -1.60688026E+00
 -2.47799540E+00 -6.00701404E-01 -1.60688026E+00 -2.47799540E+00 -6.00701404E-01
 -1.60688026E+00 -2.47799540E+00 -6.00701404E-01 -1.60688026E+00 -2.47799540E+00
 -6.00701404E-01 -1.60688026E+00 -2.93209549E+00 -2.23525441E+00 -8.82110277E-01
 -2.93209549E+00 -2.23525441E+00 -8.82110277E-01 -2.93209549E+00 -2.23525441E+00
 -8.82110277E-01 -2.93209549E+00 -2.23525441E+00 -8.82110277E-01 -2.93209549E+00
 -2.23525441E+00 -8.82110277E-01
Num ILSW                                   I              100
ILSW                                       I   N=         100
           0           0           0           0           2           0
           0           0           0           0        4336          -1
           5           0           0           0           0           0
           0           0           0           0           0           0
           1           0           0           0           0           0
           0           0      100000           0          -1           0
           0           0           0           0           0           0
           0           0           0           1           0           0
           0 -2000000000           1           0           0           0
           0           0           4          52           0           0
           0           0          55           0           0           0
           0           0           0           7           0           1
           0           0           0           0           0           0
           0           0           0           0           0           0
           0           0           0           0           0           0
           0           0           0           0           0           0
           0           0           0           0
Num RLSW                                   I               52
RLSW                                       R   N=          52
  1.00000000E+00  1.00000000E+00  1.00000000E+00  1.00000000E+00  5.40000000E-01
  0.00000000E+00  0.00000000E+00  1.00000000E+00  0.00000000E+00  0.00000000E+00
  0.00000000E+00  0.00000000E+00  1.00000000E+00  0.00000000E+00  0.00000000E+00
  0.00000000E+00  0.00000000E+00  1.00000000E+00  0.00000000E+00  0.00000000E+00
  0.00000000E+00  0.00000000E+00  1.00000000E+00  0.00000000E+00  0.00000000E+00
  0.00000000E+00  0.00000000E+00  1.00000000E+00  0.00000000E+00  0.00000000E+00
  0.00000000E+00  0.00000000E+00  1.00000000E+00  0.00000000E+00  0.00000000E+00
  0.00000000E+00  0.00000000E+00  0.00000000E+00  1.00000000E+00  1.00000000E+00
  0.00000000E+00  1.00000000E+00  0.00000000E+00  0.00000000E+00  0.00000000E+00
  0.00000000E+00  0.00000000E+00  0.00000000E+00  0.00000000E+00  0.00000000E+00
  0.00000000E+00  0.00000000E+00
MxBond                                     I                4
NBond                                      I   N=           7
           4           1           1           2           1           2
           1
IBond                                      I   N=          28
           2           3           4           6           1           0
           0           0           1           0           0           0
           1           5           0           0           4           0
           0           0           1           7           0           0
           6           0           0           0
RBond                                      R   N=          28
  2.00000000E+00  2.00000000E+00  1.00000000E+00  1.00000000E+00  2.00000000E+00
  0.00000000E+00  0.00000000E+00  0.00000000E+00  2.00000000E+00  0.00000000E+00
  0.00000000E+00  0.00000000E+00  1.00000000E+00  1.00000000E+00  0.00000000E+00
  0.00000000E+00  1.00000000E+00  0.00000000E+00  0.00000000E+00  0.00000000E+00
  1.00000000E+00  1.00000000E+00  0.00000000E+00  0.00000000E+00  1.00000000E+00
  0.00000000E+00  0.00000000E+00  0.00000000E+00
Virial Ratio                               R      2.004226375483587E+00
SCF Energy                                 R     -6.436067319663525E+02
Total Energy                               R     -6.436067319663525E+02
RMS Density                                R      3.581224753182716E-09
Job Status                                 I                1
Nuclear derivative order                   I                0
External E-field                           R   N=          35
  0.00000000E+00  0.00000000E+00 -8.00000000E-04  0.00000000E+00  0.00000000E+00
  0.00000000E+00  0.00000000E+00  0.00000000E+00  0.00000000E+00  0.00000000E+00
  0.00000000E+00  0.00000000E+00  0.00000000E+00  0.00000000E+00  0.00000000E+00
  0.00000000E+00  0.00000000E+00  0.00000000E+00  0.00000000E+00  0.00000000E+00
  0.00000000E+00  0.00000000E+00  0.00000000E+00  0.00000000E+00  0.00000000E+00
  0.00000000E+00  0.00000000E+00  0.00000000E+00  0.00000000E+00  0.00000000E+00
  0.00000000E+00  0.00000000E+00  0.00000000E+00  0.00000000E+00  0.00000000E+00
IOpCl                                      I                0
IROHF                                      I                0
Alpha Orbital Energies                     R   N=         146
 -7.80121191E+01 -1.94739217E+01 -1.94739038E+01 -1.94084461E+01 -1.93977163E+01
 -6.78290582E+00 -4.90161508E+00 -4.90095445E+00 -4.89897841E+00 -9.98440953E-01
 -9.47639819E-01 -8.92438079E-01 -8.66887899E-01 -4.81065050E-01 -4.03726216E-01
 -3.74258359E-01 -3.31571601E-01 -3.22083005E-01 -2.65472145E-01 -2.55375699E-01
 -2.27803834E-01 -2.01195074E-01 -1.81083673E-01 -1.72910737E-01 -1.62708937E-01
  1.07248928E-01  1.25325589E-01  1.52948449E-01  1.55884208E-01  1.70164134E-01
  1.84984265E-01  1.93362695E-01  1.99124027E-01  2.20581805E-01  2.48219367E-01
  2.68331385E-01  2.99276714E-01  3.15859175E-01  3.20501946E-01  3.23177167E-01
  3.31051593E-01  3.34688742E-01  3.42354025E-01  3.48692346E-01  3.55095371E-01
  3.66523270E-01  3.69733594E-01  3.84149423E-01  3.84604996E-01  3.93120291E-01
  3.94616118E-01  4.03497689E-01  4.27916990E-01  4.35299617E-01  4.54634724E-01
  4.65596745E-01  4.96702825E-01  5.18740392E-01  5.29520261E-01  5.52972590E-01
  5.61435214E-01  5.68287317E-01  5.71903914E-01  6.06730791E-01  6.07557649E-01
  6.37617273E-01  6.48529747E-01  7.20053555E-01  7.25919657E-01  7.60320892E-01
  7.70123764E-01  7.73774993E-01  8.16254013E-01  8.26673013E-01  8.34323968E-01
  8.40293610E-01  8.67197030E-01  8.79993571E-01  9.09622179E-01  9.10561457E-01
  9.16052507E-01  9.43863281E-01  9.69796966E-01  9.88406515E-01  1.00517070E+00
  1.02107038E+00  1.03478818E+00  1.03756528E+00  1.03934500E+00  1.10540761E+00
  1.10774494E+00  1.15116279E+00  1.16628004E+00  1.20857460E+00  1.21240155E+00
  1.26307955E+00  1.27982961E+00  1.30347077E+00  1.30365657E+00  1.34291954E+00
  1.34860385E+00  1.37298384E+00  1.47099002E+00  1.53320606E+00  1.59577590E+00
  1.61194657E+00  1.61673185E+00  1.63202269E+00  1.68736230E+00  1.73353451E+00
  1.77794310E+00  1.81681601E+00  1.88309833E+00  1.92380867E+00  2.00020349E+00
  2.01796466E+00  2.29651533E+00  2.30379077E+00  2.42683747E+00  2.48174002E+00
  2.62149393E+00  2.62239064E+00  2.64334139E+00  2.69770222E+00  2.70007917E+00
  2.73122487E+00  2.73646709E+00  2.74565606E+00  2.77546487E+00  2.78178009E+00
  2.78801227E+00  2.88131107E+00  2.89677481E+00  2.92170974E+00  2.99685695E+00
  3.15718726E+00  3.21382677E+00  3.33934266E+00  3.45199488E+00  3.47337662E+00
  7.39525177E+00  4.29142511E+01  4.29473746E+01  4.31390806E+01  4.32097336E+01
  1.64486943E+02
Alpha MO coefficients                      R   N=       21316
  4.16400404E-01  6.48366537E-01  1.43335572E-02 -4.71444829E-03  3.00108006E-03
  7.96580012E-04 -1.75385049E-03 -9.92959004E-08 -2.32652450E-05 -3.05008800E-05
  1.37603213E-07  4.37967368E-05 -3.19721874E-05  5.94671981E-07  2.36854925E-05
  7.13845834E-04  5.09596339E-06  1.20173210E-03  1.48195226E-03 -2.19645917E-07
  2.23806669E-05 -1.69205431E-04 -1.14304553E-04 -6.77027340E-07 -1.47609492E-04
 -3.37299453E-04  2.66652074E-06  1.34947923E-04  7.22965306E-07  1.40668044E-04
  3.72532373E-04 -2.79288689E-06  4.47440172E-06 -1.65500705E-05  1.75587955E-04
 -5.29897457E-04 -1.10060651E-03  1.52415498E-07  3.46900983E-05  1.98635511E-05
  3.45479067E-06  8.57635315E-04 -8.39517489E-05  2.90565465E-06  7.46021773E-04
 -1.03921059E-04  5.66012662E-05 -5.93481778E-08 -1.52511748E-05  1.03652315E-04
 -8.55270365E-07  2.49971786E-04  4.86163557E-08  9.16284275E-06  4.11997897E-04
 -3.32388527E-06  4.25486912E-06 -1.57340552E-05  1.62753103E-04 -4.53690833E-04
 -8.42949182E-04 -3.31765549E-08 -8.57162256E-06  2.78225867E-05 -2.58968275E-06
 -6.56538468E-04  6.19956855E-04 -2.21215172E-06 -5.71261085E-04  4.72257296E-04
 -4.66011427E-05  3.72290601E-07  9.53983518E-05  4.61287029E-05 -3.63969191E-07
 -1.73000178E-04  1.72125492E-06  4.36828698E-04  1.76350494E-04 -1.36975516E-06
  3.19117048E-06 -1.16692713E-05  8.36636736E-05 -2.11859398E-04  1.33472888E-03
  1.13399353E-05  8.41014124E-06 -4.68872569E-06 -7.57437258E-05  5.63323285E-05
 -8.16277754E-05 -1.49909789E-04  4.52818806E-06  1.32497700E-04  1.51485705E-07
  4.74857086E-05  5.53679135E-06 -1.37990195E-05  3.26844353E-05 -1.46024489E-04
  1.13198974E-04 -4.36527239E-05 -3.19531777E-05 -1.70993937E-04 -1.00768358E-05
  4.40750969E-04  9.56034517E-05 -9.62069913E-05  6.41731644E-05  4.12980634E-05
 -4.38487161E-04  1.07378799E-04  1.12550375E-04  3.18961221E-06 -1.16633206E-05
  8.35938902E-05 -2.11671753E-04  1.33530515E-03 -1.12803391E-05  8.50483495E-06
 -4.68066260E-06  7.65996162E-05  5.57247347E-05 -8.13465943E-05  1.50482581E-04
  3.24000182E-06  1.32776921E-04  1.82352394E-07 -4.73891406E-05  5.95118121E-06
 -1.43589752E-05 -3.24442829E-05 -1.45935238E-04 -1.13444121E-04 -4.28478166E-05
 -2.89626551E-05  1.71422793E-04 -1.01091820E-05  4.40008536E-04  9.52319860E-05
  9.66783545E-05  6.33479875E-05  4.12263291E-05  4.39110710E-04  1.03686153E-04
  1.12157093E-04  1.34665175E-06 -2.11530887E-06  4.14109876E-05 -1.47559377E-04
 -8.69002801E-04  9.89846790E-03 -7.56281288E-04  2.13900736E-05 -1.85645624E-05
 -1.78628108E-05 -6.13704435E-04  3.22362482E-04  3.79824792E-04  5.16010649E-03
 -2.29160385E-03 -2.81737439E-03  4.83025556E-03 -2.77161678E-03 -3.59237822E-03
  8.27607369E-04 -1.64011813E-04 -7.75630579E-05 -9.70568135E-05 -1.60423783E-03
  3.05891802E-04  6.78587140E-04 -1.02626540E-03  1.14156697E-05 -5.17337201E-04
 -1.39906975E-04 -5.37568995E-04 -6.21919647E-04 -7.96119140E-06 -2.80080934E-05
  6.44264533E-05  1.47273649E-04  1.48884492E-03  2.21488048E-05 -6.47618199E-05
 -4.24822286E-05 -5.26608217E-04 -2.85647466E-04  5.08693723E-04 -5.72575017E-04
 -2.95656893E-04  9.36604955E-04 -1.73939825E-05  2.81546705E-05 -3.32039292E-06
 -4.68571662E-05  3.07373746E-05 -6.84620055E-05  1.75636218E-04 -5.27991984E-04
 -8.96383910E-05  4.90495945E-04 -7.14136561E-06 -4.40336057E-05  1.97289722E-04
 -5.62489126E-04 -4.74573241E-04  2.13458527E-05  4.18717881E-07 -6.17057233E-05
 -8.15188856E-04  1.88623244E-04  8.67987530E-04 -8.89073015E-04  4.95581326E-04
  8.63062072E-04 -9.82041548E-06  7.76415462E-05 -2.59007479E-05 -3.98083799E-05
 -1.56249412E-05 -6.30351246E-04  5.17824164E-04  6.82491628E-05 -2.09124701E-04
 -3.71447970E-04  4.14118739E-01  6.53852670E-01  1.86908211E-02 -1.10183416E-02
 -8.17878317E-03 -4.28335239E-04 -7.30089172E-04  9.07856456E-04  4.35337276E-03
 -1.56381512E-04 -4.30598260E-03  1.03542413E-03 -4.36679320E-04 -1.42539107E-03
 -1.08831709E-05  2.52953603E-04 -4.34098249E-05 -1.32243681E-04  7.26672907E-05
 -4.68515489E-04  1.85855801E-03 -1.62364075E-04 -9.62089177E-04  5.08960209E-04
  5.66251185E-04  3.00306145E-03 -2.12813890E-04 -1.91897501E-04 -1.93863413E-04
  4.86720361E-04 -4.91022854E-04  1.71611878E-03 -4.51143472E-04 -6.70892588E-02
 -1.05939993E-01 -2.95835698E-03  1.71797936E-03  1.29759385E-03 -2.94713587E-05
  1.11132225E-04 -1.40620231E-04  4.92423892E-05  1.86116889E-04  9.41984744E-04
 -1.20690874E-03  1.02332914E-03  8.87709302E-04  4.69287692E-06  8.95658662E-05
  1.13354333E-05 -1.86287744E-05  3.14851889E-05  7.17456561E-04  2.90608392E-04
  3.14549570E-04 -1.84889162E-04  1.37683393E-04 -5.53675709E-05 -4.22088285E-04
  2.23738726E-04 -9.34986068E-05 -7.36386995E-07 -9.62190326E-05 -1.57463763E-04
 -7.97283182E-04 -1.12165274E-05  1.86661364E-06 -2.93196331E-06  5.73944137E-05
 -2.04478495E-04 -1.20542412E-03  1.37195946E-02 -1.05364343E-03 -1.55908846E-05
 -2.55592770E-05 -2.47573488E-05  4.45568703E-04  4.41757902E-04  5.26438839E-04
 -3.74058274E-03 -3.13247927E-03 -3.90275416E-03 -3.50825569E-03 -3.80549453E-03
 -4.97764155E-03 -5.98412719E-04 -2.19458740E-04 -1.07381209E-04 -1.35713874E-04
  1.15871896E-03  4.09707348E-04  9.58602127E-04  7.28292432E-04  1.59856210E-05
  3.72172073E-04 -1.98911030E-04 -7.33365794E-04  4.57802524E-04 -1.10409902E-05
 -3.88315514E-05  8.92765436E-05  2.04529383E-04  2.06840471E-03 -1.65730955E-05
 -8.95820682E-05 -5.89111837E-05  3.77473707E-04 -4.00773013E-04  7.05048927E-04
  4.10642422E-04 -4.15005876E-04  1.29874736E-03 -2.41068878E-05 -2.03179282E-05
 -4.30777264E-06 -6.54956282E-05 -2.13309035E-05 -9.45660567E-05 -1.31305840E-04
 -7.30530907E-04 -1.32625935E-04 -3.52337937E-04 -9.89578219E-06 -6.10590414E-05
  2.73641511E-04 -7.80269901E-04 -6.60119264E-04 -1.54455104E-05  7.61425527E-07
 -8.55527781E-05  5.89974127E-04  2.54299264E-04  1.20354576E-03  6.45917335E-04
  6.78707751E-04  1.19705124E-03 -1.35687454E-05 -5.61947607E-05 -3.52467676E-05
 -5.49443068E-05  1.19449899E-05 -8.73806698E-04 -3.73339660E-04  9.91552886E-05
 -2.83762695E-04  2.71461503E-04  6.70926957E-02  1.05919415E-01  3.10139883E-03
 -1.85506381E-03 -1.35013537E-03 -1.10545050E-04 -1.26014084E-04  1.53923671E-04
  1.39821386E-03  1.44511616E-04 -4.39517159E-04  1.62483221E-03  9.22973997E-04
  4.61382231E-04  1.37578222E-06 -1.01445616E-05 -1.71419217E-06 -6.41931324E-05
 -8.68788546E-06  6.00425285E-04  3.15153070E-04  2.80070849E-04 -5.17461764E-04
  2.74497885E-05  1.30103369E-04  5.52031779E-04  1.65517229E-04  3.46618688E-05
 -6.61119482E-05  6.05578812E-05 -3.45387035E-06 -2.71442004E-04 -1.62022312E-04
  4.14119334E-01  6.53849427E-01  1.87134342E-02 -1.10393136E-02 -8.18115109E-03
  4.35325873E-04 -7.35752969E-04  9.10093227E-04 -4.57203836E-03 -6.50357122E-05
 -4.22185281E-03 -1.49475137E-03 -1.09954964E-04 -1.20491019E-03 -9.72155971E-06
 -2.37043678E-04 -3.97205921E-05 -1.46787115E-04 -6.38642781E-05 -2.53892217E-04
 -1.86225285E-03 -5.01190960E-05 -1.08411077E-03 -4.73854710E-04  5.78860131E-04
  3.02343241E-03 -1.48863843E-04  1.69708434E-04 -2.05790090E-04  4.80735038E-04
  4.79653056E-04  1.53793745E-03 -4.80046812E-04  2.90757790E-06  8.04511430E-07
  5.03946852E-05 -2.76335174E-04  1.30826631E-04  1.99436984E-02 -2.19536698E-04
 -2.20782412E-07 -5.52128184E-05  3.56565363E-05  2.48393500E-06  6.10719052E-04
 -2.95418802E-04 -2.81975694E-05 -7.10313398E-03  5.52264575E-03 -4.64211967E-05
 -1.15799444E-02  5.03007845E-03  1.64462425E-06  3.82139415E-04 -5.41634273E-04
  9.36038614E-04 -6.62049686E-06 -1.72701979E-03 -4.90697404E-04  3.74546853E-06
 -8.15618394E-04  4.58619199E-06  1.19673433E-03 -2.73307104E-04  2.15760359E-06
 -9.44530880E-05 -1.60561389E-04  2.84091106E-08  7.40042464E-04  7.07692865E-03